    <weight id="40">Member 27</weight>
    <weight id="41">Member 28</weight>
    <weight id="42">Member 29</weight>
    <weight id="43">Member 30</weight>
    <weight id="44">Member 31</weight>
    <weight id="45">Member 32</weight>
    <weight id="46">Member 33</weight>
    <weight id="47">Member 34</weight>
    <weight id="48">Member 35</weight>
    <weight id="49">Member 36</weight>
    <weight id="50">Member 37</weight>
    <weight id="51">Member 38</weight>
    <weight id="52">Member 39</weight>
    <weight id="53">Member 40</weight>
  </weightgroup>
</initrwgt>
</header>
<init>
2212     2212  0.65000000000E+04  0.65000000000E+04 0 0   21100   21100  3   1
 2.824817070400E-01 2.085591110200E-04 2.825100000000E-06 0
</init>
<event>
 12      0 +2.8251000e-06 7.00879700e+02 7.54677100e-03 9.71720200e-02
        2 -1    0    0  501    0 +0.00000000000e+00 +0.00000000000e+00 +1.10877528140e+03  1.10877528140e+03  0.00000000000e+00 0.0000e+00 -1.0000e+00
        2 -1    0    0  503    0 +0.00000000000e+00 +0.00000000000e+00 -1.38414489500e+03  1.38414489500e+03  0.00000000000e+00 0.0000e+00 -1.0000e+00
       24  2    1    2    0    0 -7.48511467817e+02 -6.41252577033e+01 -2.03804587932e+01  7.56045027874e+02  8.25060903402e+01 0.0000e+00 0.0000e+00
        2  1    3    3  505    0 -6.72032181538e+02 -3.23671924086e+01 -1.34664947805e+01  6.72945937389e+02  0.00000000000e+00 0.0000e+00 -1.0000e+00
       -1  1    3    3    0  505 -7.64792862795e+01 -3.17580652947e+01 -6.91396401270e+00  8.30990904851e+01  0.00000000000e+00 0.0000e+00 1.0000e+00
       24  2    1    2    0    0 +2.61672681856e+01 -4.92519396181e+01 +1.62073131840e+02  1.89493394410e+02  8.08057360614e+01 0.0000e+00 0.0000e+00
       14  1    6    6    0    0 -2.40357664383e+01 -1.32725665440e+01 +1.82500323780e+01  3.29688151552e+01  0.00000000000e+00 0.0000e+00 -1.0000e+00
      -13  1    6    6    0    0 +5.02030346239e+01 -3.59793730741e+01 +1.43823099462e+02  1.56524579255e+02  0.00000000000e+00 0.0000e+00 1.0000e+00
       21  1    1    2  503  504 +6.84789146348e+01 +5.84161692321e+01 -2.42036744073e+02  2.58231671293e+02  0.00000000000e+00 0.0000e+00 1.0000e+00
       21  1    1    2  504  502 +1.58748165413e+02 -2.80040406966e+02 -1.35812517588e+02  3.49383241569e+02  0.00000000000e+00 0.0000e+00 1.0000e+00
        1  1    1    2  501    0 +6.53315230500e+02 +1.09886335029e+02 -5.04937378422e+00  6.62511353265e+02  0.00000000000e+00 0.0000e+00 -1.0000e+00
        1  1    1    2  502    0 -1.58198110916e+02 +2.25115100026e+02 -3.41636512014e+01  2.77255487989e+02  0.00000000000e+00 0.0000e+00 -1.0000e+00
#  0.1300000e+05  0.1300000e+05  0.9004409e+02  0.2895662e+03  0.1300000e+05  0.1300000e+05
<mgrwt>
<rscale>  2 0.42859209e+03</rscale>
<asrwt>  2 0.90044090e+02 0.28956621e+03</asrwt>
<pdfrwt beam="1">  1        2 0.17058081e+00 0.98004547e+02</pdfrwt>
<pdfrwt beam="2">  3        2        2        2 0.21294537e+00 0.17287892e+00 0.11375746e+00 0.90044090e+02 0.28956621e+03 0.70087966e+03</pdfrwt>
<totfact> 0.72007172e-03</totfact>
</mgrwt>
<clustering>
<clus scale="   90.044">  2  5  1 -1</clus>
<clus scale="   98.005">  1  4  2 -1</clus>
<clus scale="  269.202">  1  8  2 -1</clus>
<clus scale="  289.566">  2  6  1 -1</clus>
<clus scale="  696.251">  1  7  2 -1</clus>
<clus scale="  700.880">  1  3  2 -1</clus>
</clustering>
<rwgt>
  <wgt id="1">4.74055e-06</wgt>
  <wgt id="2">3.25412e-06</wgt>
  <wgt id="3">2.37603e-06</wgt>
  <wgt id="4">4.11556e-06</wgt>
  <wgt id="5">2.8251e-06</wgt>
  <wgt id="6">2.06277e-06</wgt>
  <wgt id="7">3.6631e-06</wgt>
  <wgt id="8">2.51451e-06</wgt>
  <wgt id="9">1.836e-06</wgt>
  <wgt id="10">4.39034e-06</wgt>
  <wgt id="11">2.8251e-06</wgt>
  <wgt id="12">1.97564e-06</wgt>
  <wgt id="13">2.8251e-06</wgt>
  <wgt id="14">2.82803e-06</wgt>
  <wgt id="15">2.8227e-06</wgt>
  <wgt id="16">2.80815e-06</wgt>
  <wgt id="17">2.84413e-06</wgt>
  <wgt id="18">2.81097e-06</wgt>
  <wgt id="19">2.84606e-06</wgt>
  <wgt id="20">2.81679e-06</wgt>
  <wgt id="21">2.83071e-06</wgt>
  <wgt id="22">2.83356e-06</wgt>
  <wgt id="23">2.81317e-06</wgt>
  <wgt id="24">2.87088e-06</wgt>
  <wgt id="25">2.79696e-06</wgt>
  <wgt id="26">2.82566e-06</wgt>
  <wgt id="27">2.82443e-06</wgt>
  <wgt id="28">2.87998e-06</wgt>
  <wgt id="29">2.80532e-06</wgt>
  <wgt id="30">2.83147e-06</wgt>
  <wgt id="31">2.81716e-06</wgt>
  <wgt id="32">2.82707e-06</wgt>
  <wgt id="33">2.82322e-06</wgt>
  <wgt id="34">2.78301e-06</wgt>
  <wgt id="35">2.90316e-06</wgt>
  <wgt id="36">2.85e-06</wgt>
  <wgt id="37">2.81058e-06</wgt>
  <wgt id="38">2.81249e-06</wgt>
  <wgt id="39">2.83163e-06</wgt>
  <wgt id="40">2.82773e-06</wgt>
  <wgt id="41">2.82277e-06</wgt>
  <wgt id="42">2.85052e-06</wgt>
  <wgt id="43">2.785e-06</wgt>
  <wgt id="44">2.83077e-06</wgt>
  <wgt id="45">2.82321e-06</wgt>
  <wgt id="46">2.82307e-06</wgt>
  <wgt id="47">2.82643e-06</wgt>
  <wgt id="48">2.82585e-06</wgt>
  <wgt id="49">2.82955e-06</wgt>
  <wgt id="50">2.81711e-06</wgt>
  <wgt id="51">2.83745e-06</wgt>
  <wgt id="52">2.84277e-06</wgt>
  <wgt id="53">2.82067e-06</wgt>
</rwgt>
</event>
<event>
 11      0 +2.8251000e-06 4.53763300e+02 7.54677100e-03 9.92944400e-02
        2 -1    0    0  503    0 +0.00000000000e+00 +0.00000000000e+00 +4.83687276270e+02  4.83687276270e+02  0.00000000000e+00 0.0000e+00 -1.0000e+00
        2 -1    0    0  501    0 +0.00000000000e+00 +0.00000000000e+00 -1.35819072700e+03  1.35819072700e+03  0.00000000000e+00 0.0000e+00 -1.0000e+00
       24  2    1    2    0    0 +3.87728058745e+02 -2.04881836046e+02 +1.58417634980e+02  4.73188848585e+02  8.06345153950e+01 0.0000e+00 0.0000e+00
        4  1    3    3  504    0 +3.27117426184e+02 -2.03506645658e+02 +1.36335161974e+02  4.08666173950e+02  0.00000000000e+00 0.0000e+00 -1.0000e+00
       -3  1    3    3    0  504 +6.06106325600e+01 -1.37519038755e+00 +2.20824730063e+01  6.45226746346e+01  0.00000000000e+00 0.0000e+00 1.0000e+00
       24  2    1    2    0    0 -1.18547903512e+02 +1.06975930175e+02 -5.03450112814e+02  5.34242123467e+02  8.03441057591e+01 0.0000e+00 0.0000e+00
        2  1    6    6  505    0 -1.07050633548e+02 +9.57057844527e+01 -4.96246328038e+02  5.16604155435e+02  0.00000000000e+00 0.0000e+00 -1.0000e+00
       -1  1    6    6    0  505 -1.14972699643e+01 +1.12701457220e+01 -7.20378477609e+00  1.76379680329e+01  0.00000000000e+00 0.0000e+00 1.0000e+00
       21  1    1    2  503  502 -5.21043220459e+01 +2.30128984124e+01 +3.29895220520e+01  6.58237224290e+01  0.00000000000e+00 0.0000e+00 -1.0000e+00
        1  1    1    2  501    0 +8.61039765685e+01 -5.63858506380e+00 +3.55549034540e+01  9.33265213220e+01  0.00000000000e+00 0.0000e+00 -1.0000e+00
        1  1    1    2  502    0 -3.03179809755e+02 +8.05315925223e+01 -5.98015398402e+02  6.75296787467e+02  0.00000000000e+00 0.0000e+00 -1.0000e+00
#  0.1300000e+05  0.1300000e+05  0.5696011e+02  0.1300000e+05  0.1300000e+05
<mgrwt>
<rscale>  2 0.36035282e+03</rscale>
<asrwt>  1 0.56960108e+02</asrwt>
<pdfrwt beam="1">  2        2        2 0.74413427e-01 0.65912938e-01 0.56960108e+02 0.45376330e+03</pdfrwt>
<pdfrwt beam="2">  1        2 0.20895242e+00 0.18047773e+03</pdfrwt>
<totfact> 0.22040688e-01</totfact>
</mgrwt>
<clustering>
<clus scale="   56.960">  1  5  2 -1</clus>
<clus scale="   78.745">  3  6 -1 -1</clus>
<clus scale="  180.478">  2  4  1 -1</clus>
<clus scale="  437.519">  2  7  1 -1</clus>
<clus scale="  453.763">  1  3  2 -1</clus>
</clustering>
<rwgt>
  <wgt id="1">4.66655e-06</wgt>
  <wgt id="2">3.17363e-06</wgt>
  <wgt id="3">2.30208e-06</wgt>
  <wgt id="4">4.15407e-06</wgt>
  <wgt id="5">2.8251e-06</wgt>
  <wgt id="6">2.04926e-06</wgt>
  <wgt id="7">3.73863e-06</wgt>
  <wgt id="8">2.54257e-06</wgt>
  <wgt id="9">1.84432e-06</wgt>
  <wgt id="10">3.67897e-06</wgt>
  <wgt id="11">2.8251e-06</wgt>
  <wgt id="12">2.29791e-06</wgt>
  <wgt id="13">2.8251e-06</wgt>
  <wgt id="14">2.82813e-06</wgt>
  <wgt id="15">2.82264e-06</wgt>
  <wgt id="16">2.81594e-06</wgt>
  <wgt id="17">2.83529e-06</wgt>
  <wgt id="18">2.81201e-06</wgt>
  <wgt id="19">2.84457e-06</wgt>
  <wgt id="20">2.81429e-06</wgt>
  <wgt id="21">2.83243e-06</wgt>
  <wgt id="22">2.83238e-06</wgt>
  <wgt id="23">2.81484e-06</wgt>
  <wgt id="24">2.86527e-06</wgt>
  <wgt id="25">2.80038e-06</wgt>
  <wgt id="26">2.82448e-06</wgt>
  <wgt id="27">2.82599e-06</wgt>
  <wgt id="28">2.87206e-06</wgt>
  <wgt id="29">2.80817e-06</wgt>
  <wgt id="30">2.83014e-06</wgt>
  <wgt id="31">2.81873e-06</wgt>
  <wgt id="32">2.82856e-06</wgt>
  <wgt id="33">2.82183e-06</wgt>
  <wgt id="34">2.7882e-06</wgt>
  <wgt id="35">2.89335e-06</wgt>
  <wgt id="36">2.84334e-06</wgt>
  <wgt id="37">2.81573e-06</wgt>
  <wgt id="38">2.81469e-06</wgt>
  <wgt id="39">2.83042e-06</wgt>
  <wgt id="40">2.82697e-06</wgt>
  <wgt id="41">2.82364e-06</wgt>
  <wgt id="42">2.84784e-06</wgt>
  <wgt id="43">2.78654e-06</wgt>
  <wgt id="44">2.83379e-06</wgt>
  <wgt id="45">2.82184e-06</wgt>
  <wgt id="46">2.8247e-06</wgt>
  <wgt id="47">2.82568e-06</wgt>
  <wgt id="48">2.81085e-06</wgt>
  <wgt id="49">2.83479e-06</wgt>
  <wgt id="50">2.81552e-06</wgt>
  <wgt id="51">2.83858e-06</wgt>
  <wgt id="52">2.83467e-06</wgt>
  <wgt id="53">2.82266e-06</wgt>
</rwgt>
</event>
<event>
 10      0 +2.8251000e-06 4.66482700e+02 7.54677100e-03 9.73347300e-02
       -1 -1    0    0    0  501 +0.00000000000e+00 +0.00000000000e+00 +4.36457047050e+02  4.36457047050e+02  0.00000000000e+00 0.0000e+00 1.0000e+00
       -1 -1    0    0    0  502 +0.00000000000e+00 +0.00000000000e+00 -9.08769867690e+02  9.08769867690e+02  0.00000000000e+00 0.0000e+00 1.0000e+00
       24  2    1    2    0    0 -2.35752066417e+02 -6.96733741694e+01 -6.31233201600e+02  6.82169048404e+02  8.04104465233e+01 0.0000e+00 0.0000e+00
       16  1    3    3    0    0 -1.32248687854e+02 -1.25962614713e+01 -2.51002876031e+02  2.83990888970e+02  0.00000000000e+00 0.0000e+00 -1.0000e+00
      -15  1    3    3    0    0 -1.03503378564e+02 -5.70771126981e+01 -3.80230325569e+02  3.98178159434e+02  1.77700000000e+00 0.0000e+00 1.0000e+00
       24  2    1    2    0    0 +1.57622576261e+02 -3.31588861313e+01 +3.11536028636e+02  3.60088819564e+02  8.16386707391e+01 0.0000e+00 0.0000e+00
        4  1    6    6  503    0 +5.08950334733e+01 -3.80323181632e+01 +6.26227416769e+01  8.92096936002e+01  0.00000000000e+00 0.0000e+00 -1.0000e+00
       -3  1    6    6    0  503 +1.06727542788e+02 +4.87343203191e+00 +2.48913286959e+02  2.70879125964e+02  0.00000000000e+00 0.0000e+00 1.0000e+00
       -2  1    1    2    0  502 +1.32666223879e+02 +1.12753233165e+02 -4.17890860524e+01  1.79052914694e+02  0.00000000000e+00 0.0000e+00 1.0000e+00
       -2  1    1    2    0  501 -5.45367337231e+01 -9.92097286443e+00 -1.10826561623e+02  1.23916132077e+02  0.00000000000e+00 0.0000e+00 1.0000e+00
#  0.1300000e+05  0.1300000e+05  0.1300000e+05  0.1300000e+05
<mgrwt>
<rscale>  2 0.42282470e+03</rscale>
<asrwt>0</asrwt>
<pdfrwt beam="1">  1       -1 0.67147238e-01 0.46648271e+03</pdfrwt>
<pdfrwt beam="2">  1       -1 0.13981075e+00 0.31487253e+03</pdfrwt>
<totfact> 0.12979465e-01</totfact>
</mgrwt>
<clustering>
<clus scale="   55.400">  3  6 -1 -1</clus>
<clus scale="  174.049">  4  5 -1 -1</clus>
<clus scale="  314.873">  2  3  1 -1</clus>
<clus scale="  466.483">  1  3  2 -1</clus>
</clustering>
<rwgt>
  <wgt id="1">4.81191e-06</wgt>
  <wgt id="2">3.3008e-06</wgt>
  <wgt id="3">2.40889e-06</wgt>
  <wgt id="4">4.11843e-06</wgt>
  <wgt id="5">2.8251e-06</wgt>
  <wgt id="6">2.06173e-06</wgt>
  <wgt id="7">3.57508e-06</wgt>
  <wgt id="8">2.45238e-06</wgt>
  <wgt id="9">1.78972e-06</wgt>
  <wgt id="10">2.8251e-06</wgt>
  <wgt id="11">2.8251e-06</wgt>
  <wgt id="12">2.8251e-06</wgt>
  <wgt id="13">2.8251e-06</wgt>
  <wgt id="14">2.83121e-06</wgt>
  <wgt id="15">2.81993e-06</wgt>
  <wgt id="16">2.86084e-06</wgt>
  <wgt id="17">2.7855e-06</wgt>
  <wgt id="18">2.80796e-06</wgt>
  <wgt id="19">2.85084e-06</wgt>
  <wgt id="20">2.88538e-06</wgt>
  <wgt id="21">2.78497e-06</wgt>
  <wgt id="22">2.84263e-06</wgt>
  <wgt id="23">2.80001e-06</wgt>
  <wgt id="24">2.91658e-06</wgt>
  <wgt id="25">2.76981e-06</wgt>
  <wgt id="26">2.82672e-06</wgt>
  <wgt id="27">2.82311e-06</wgt>
  <wgt id="28">2.84506e-06</wgt>
  <wgt id="29">2.81816e-06</wgt>
  <wgt id="30">2.79894e-06</wgt>
  <wgt id="31">2.85764e-06</wgt>
  <wgt id="32">2.8553e-06</wgt>
  <wgt id="33">2.79613e-06</wgt>
  <wgt id="34">2.84586e-06</wgt>
  <wgt id="35">2.788e-06</wgt>
  <wgt id="36">2.77553e-06</wgt>
  <wgt id="37">2.84746e-06</wgt>
  <wgt id="38">2.97292e-06</wgt>
  <wgt id="39">2.75865e-06</wgt>
  <wgt id="40">2.80603e-06</wgt>
  <wgt id="41">2.84569e-06</wgt>
  <wgt id="42">2.81973e-06</wgt>
  <wgt id="43">2.80668e-06</wgt>
  <wgt id="44">2.87504e-06</wgt>
  <wgt id="45">2.80499e-06</wgt>
  <wgt id="46">2.86438e-06</wgt>
  <wgt id="47">2.80155e-06</wgt>
  <wgt id="48">2.82548e-06</wgt>
  <wgt id="49">2.8242e-06</wgt>
  <wgt id="50">2.82626e-06</wgt>
  <wgt id="51">2.8385e-06</wgt>
  <wgt id="52">2.7776e-06</wgt>
  <wgt id="53">2.83838e-06</wgt>
</rwgt>
</event>
<event>
 12      0 +2.8251000e-06 1.61908200e+02 7.54677100e-03 1.10673700e-01
        2 -1    0    0  504    0 +0.00000000000e+00 +0.00000000000e+00 +9.87767023040e+02  9.87767023040e+02  0.00000000000e+00 0.0000e+00 -1.0000e+00
        2 -1    0    0  502    0 +0.00000000000e+00 +0.00000000000e+00 -1.67536447590e+03  1.67536447590e+03  0.00000000000e+00 0.0000e+00 -1.0000e+00
       24  2    1    2    0    0 -1.34194625221e+01 -2.58630645158e+01 -4.58530856952e+02  4.66467120722e+02  8.05732452910e+01 0.0000e+00 0.0000e+00
       16  1    3    3    0    0 -7.51945911230e-01 +2.75332833807e+01 -2.19277927994e+02  2.21001033531e+02  0.00000000000e+00 0.0000e+00 -1.0000e+00
      -15  1    3    3    0    0 -1.26675166109e+01 -5.33963478966e+01 -2.39252928957e+02  2.45466087190e+02  1.77700000000e+00 0.0000e+00 1.0000e+00
       24  2    1    2    0    0 -2.81698207945e+01 +5.47604451387e+00 +1.01337845709e+02  1.32815976741e+02  8.09147627902e+01 0.0000e+00 0.0000e+00
       12  1    6    6    0    0 -3.74291129170e+01 -3.00803180082e+01 +4.69551552420e+01  6.71606330302e+01  0.00000000000e+00 0.0000e+00 -1.0000e+00
      -11  1    6    6    0    0 +9.25929212252e+00 +3.55563625220e+01 +5.43826904675e+01  6.56553437103e+01  0.00000000000e+00 0.0000e+00 1.0000e+00
       21  1    1    2  503  501 +9.09843592693e+01 +6.56353746391e+01 +3.69469812460e+02  3.86127049499e+02  0.00000000000e+00 0.0000e+00 -1.0000e+00
       21  1    1    2  504  503 -2.55801625983e+01 -5.26942851871e+01 +3.57853456870e+02  3.62615676721e+02  0.00000000000e+00 0.0000e+00 -1.0000e+00
        1  1    1    2  501    0 -2.39905514310e+02 +1.99329815234e+02 -9.61012748274e+02  1.01036257521e+03  0.00000000000e+00 0.0000e+00 -1.0000e+00
        1  1    1    2  502    0 +2.16090600956e+02 -1.91883884684e+02 -9.67149626738e+01  3.04743100049e+02  0.00000000000e+00 0.0000e+00 -1.0000e+00
#  0.1300000e+05  0.1300000e+05  0.8284289e+02  0.5857502e+02  0.1300000e+05  0.1300000e+05
<mgrwt>
<rscale>  2 0.15960718e+03</rscale>
<asrwt>  2 0.58575015e+02 0.82842887e+02</asrwt>
<pdfrwt beam="1">  3        2        2        2 0.15196416e+00 0.96327476e-01 0.38072968e-01 0.58575015e+02 0.82842887e+02 0.16190817e+03</pdfrwt>
<pdfrwt beam="2">  1        2 0.25774838e+00 0.86347236e+02</pdfrwt>
<totfact> 0.11276088e-02</totfact>
</mgrwt>
<clustering>
<clus scale="   58.575">  1  6  2 -1</clus>
<clus scale="   82.843">  1  5  2 -1</clus>
<clus scale="   81.542">  1  4  2 -1</clus>
<clus scale="   86.347">  2  3  1 -1</clus>
<clus scale="  303.591">  1  8  2 -1</clus>
<clus scale="  303.591">  1  3  2 -1</clus>
</clustering>
<rwgt>
  <wgt id="1">5.14135e-06</wgt>
  <wgt id="2">3.31942e-06</wgt>
  <wgt id="3">2.3252e-06</wgt>
  <wgt id="4">4.37571e-06</wgt>
  <wgt id="5">2.8251e-06</wgt>
  <wgt id="6">1.97894e-06</wgt>
  <wgt id="7">3.92304e-06</wgt>
  <wgt id="8">2.53284e-06</wgt>
  <wgt id="9">1.77422e-06</wgt>
  <wgt id="10">4.69588e-06</wgt>
  <wgt id="11">2.8251e-06</wgt>
  <wgt id="12">1.89224e-06</wgt>
  <wgt id="13">2.8251e-06</wgt>
  <wgt id="14">2.8281e-06</wgt>
  <wgt id="15">2.82259e-06</wgt>
  <wgt id="16">2.80781e-06</wgt>
  <wgt id="17">2.84435e-06</wgt>
  <wgt id="18">2.81093e-06</wgt>
  <wgt id="19">2.84616e-06</wgt>
  <wgt id="20">2.81643e-06</wgt>
  <wgt id="21">2.83089e-06</wgt>
  <wgt id="22">2.83359e-06</wgt>
  <wgt id="23">2.81311e-06</wgt>
  <wgt id="24">2.871e-06</wgt>
  <wgt id="25">2.79683e-06</wgt>
  <wgt id="26">2.82551e-06</wgt>
  <wgt id="27">2.82448e-06</wgt>
  <wgt id="28">2.87884e-06</wgt>
  <wgt id="29">2.80569e-06</wgt>
  <wgt id="30">2.83103e-06</wgt>
  <wgt id="31">2.8175e-06</wgt>
  <wgt id="32">2.82648e-06</wgt>
  <wgt id="33">2.82369e-06</wgt>
  <wgt id="34">2.78277e-06</wgt>
  <wgt id="35">2.90351e-06</wgt>
  <wgt id="36">2.84913e-06</wgt>
  <wgt id="37">2.81168e-06</wgt>
  <wgt id="38">2.81324e-06</wgt>
  <wgt id="39">2.83134e-06</wgt>
  <wgt id="40">2.82853e-06</wgt>
  <wgt id="41">2.82189e-06</wgt>
  <wgt id="42">2.85003e-06</wgt>
  <wgt id="43">2.78561e-06</wgt>
  <wgt id="44">2.83146e-06</wgt>
  <wgt id="45">2.82291e-06</wgt>
  <wgt id="46">2.82347e-06</wgt>
  <wgt id="47">2.82614e-06</wgt>
  <wgt id="48">2.82594e-06</wgt>
  <wgt id="49">2.82955e-06</wgt>
  <wgt id="50">2.81788e-06</wgt>
  <wgt id="51">2.83702e-06</wgt>
  <wgt id="52">2.84223e-06</wgt>
  <wgt id="53">2.82087e-06</wgt>
</rwgt>
</event>
<event>
 11      0 +2.8251000e-06 1.72820000e+02 7.54677100e-03 1.09827500e-01
        2 -1    0    0  503    0 +0.00000000000e+00 +0.00000000000e+00 +4.06399158600e+02  4.06399158600e+02  0.00000000000e+00 0.0000e+00 -1.0000e+00
        2 -1    0    0  502    0 +0.00000000000e+00 +0.00000000000e+00 -9.87043050650e+02  9.87043050650e+02  0.00000000000e+00 0.0000e+00 -1.0000e+00
       24  2    1    2    0    0 -5.01218782441e+01 -1.26545773550e-01 +9.05974265389e+01  1.31063974585e+02  8.03595236796e+01 0.0000e+00 0.0000e+00
        2  1    3    3  504    0 -5.35177371198e+01 +2.90847221780e+01 +7.82670492298e+01  9.91756030772e+01  0.00000000000e+00 0.0000e+00 -1.0000e+00
       -1  1    3    3    0  504 +3.39585887565e+00 -2.92112679515e+01 +1.23303773091e+01  3.18883715079e+01  0.00000000000e+00 0.0000e+00 1.0000e+00
       24  2    1    2    0    0 -3.56104071987e+01 -3.18016277906e+01 -3.00199896765e+02  3.15301610664e+02  8.37596742978e+01 0.0000e+00 0.0000e+00
        4  1    6    6  505    0 -1.88364360424e+01 +2.75112025111e+01 -1.32561711659e+02  1.36690471447e+02  0.00000000000e+00 0.0000e+00 -1.0000e+00
       -3  1    6    6    0  505 -1.67739711563e+01 -5.93128303017e+01 -1.67638185106e+02  1.78611139217e+02  0.00000000000e+00 0.0000e+00 1.0000e+00
       21  1    1    2  503  501 -1.98633967136e+01 +5.75093134650e+01 +3.12510568850e+01  6.83995922550e+01  0.00000000000e+00 0.0000e+00 -1.0000e+00
        1  1    1    2  501    0 -1.41062601407e+02 -2.18904526512e+02 -4.88556987715e+02  5.53629641086e+02  0.00000000000e+00 0.0000e+00 -1.0000e+00
        1  1    1    2  502    0 +2.46658283563e+02 +1.93323386611e+02 +8.62645090065e+01  3.25047390661e+02  0.00000000000e+00 0.0000e+00 -1.0000e+00
#  0.1300000e+05  0.1300000e+05  0.6084304e+02  0.1300000e+05  0.1300000e+05
<mgrwt>
<rscale>  2 0.16857637e+03</rscale>
<asrwt>  1 0.60843041e+02</asrwt>
<pdfrwt beam="1">  2        2        2 0.62522947e-01 0.53680950e-01 0.60843041e+02 0.17281995e+03</pdfrwt>
<pdfrwt beam="2">  1        2 0.15185278e+00 0.90924454e+02</pdfrwt>
<totfact> 0.55301320e-01</totfact>
</mgrwt>
<clustering>
<clus scale="   60.843">  1  5  2 -1</clus>
<clus scale="   90.924">  2  4  1 -1</clus>
<clus scale="  100.431">  1  3  2 -1</clus>
<clus scale="  297.384">  2  6  1 -1</clus>
<clus scale="  297.384">  1  3  2 -1</clus>
</clustering>
<rwgt>
  <wgt id="1">4.69521e-06</wgt>
  <wgt id="2">3.04352e-06</wgt>
  <wgt id="3">2.13745e-06</wgt>
  <wgt id="4">4.35825e-06</wgt>
  <wgt id="5">2.8251e-06</wgt>
  <wgt id="6">1.98405e-06</wgt>
  <wgt id="7">4.05666e-06</wgt>
  <wgt id="8">2.6296e-06</wgt>
  <wgt id="9">1.84675e-06</wgt>
  <wgt id="10">3.66633e-06</wgt>
  <wgt id="11">2.8251e-06</wgt>
  <wgt id="12">2.30275e-06</wgt>
  <wgt id="13">2.8251e-06</wgt>
  <wgt id="14">2.82806e-06</wgt>
  <wgt id="15">2.82267e-06</wgt>
  <wgt id="16">2.82128e-06</wgt>
  <wgt id="17">2.82923e-06</wgt>
  <wgt id="18">2.81271e-06</wgt>
  <wgt id="19">2.84349e-06</wgt>
  <wgt id="20">2.81227e-06</wgt>
  <wgt id="21">2.83377e-06</wgt>
  <wgt id="22">2.83152e-06</wgt>
  <wgt id="23">2.81604e-06</wgt>
  <wgt id="24">2.86132e-06</wgt>
  <wgt id="25">2.80273e-06</wgt>
  <wgt id="26">2.82377e-06</wgt>
  <wgt id="27">2.82698e-06</wgt>
  <wgt id="28">2.8686e-06</wgt>
  <wgt id="29">2.80936e-06</wgt>
  <wgt id="30">2.83018e-06</wgt>
  <wgt id="31">2.81855e-06</wgt>
  <wgt id="32">2.83003e-06</wgt>
  <wgt id="33">2.82045e-06</wgt>
  <wgt id="34">2.79132e-06</wgt>
  <wgt id="35">2.88721e-06</wgt>
  <wgt id="36">2.84329e-06</wgt>
  <wgt id="37">2.81587e-06</wgt>
  <wgt id="38">2.81473e-06</wgt>
  <wgt id="39">2.83017e-06</wgt>
  <wgt id="40">2.82544e-06</wgt>
  <wgt id="41">2.82525e-06</wgt>
  <wgt id="42">2.847e-06</wgt>
  <wgt id="43">2.78616e-06</wgt>
  <wgt id="44">2.83547e-06</wgt>
  <wgt id="45">2.82108e-06</wgt>
  <wgt id="46">2.8255e-06</wgt>
  <wgt id="47">2.8253e-06</wgt>
  <wgt id="48">2.80096e-06</wgt>
  <wgt id="49">2.83804e-06</wgt>
  <wgt id="50">2.81428e-06</wgt>
  <wgt id="51">2.83886e-06</wgt>
  <wgt id="52">2.83023e-06</wgt>
  <wgt id="53">2.82362e-06</wgt>
</rwgt>
</event>
<event>
 12      0 +2.8251000e-06 1.34812500e+02 7.54677100e-03 1.13397400e-01
        2 -1    0    0  503    0 +0.00000000000e+00 +0.00000000000e+00 +1.38034567120e+03  1.38034567120e+03  0.00000000000e+00 0.0000e+00 -1.0000e+00
       -1 -1    0    0    0  501 +0.00000000000e+00 +0.00000000000e+00 -1.20025436600e+03  1.20025436600e+03  0.00000000000e+00 0.0000e+00 1.0000e+00
       24  2    1    2    0    0 -2.56358574702e+00 +3.11457362806e+01 -4.84339418437e+02  4.92209979413e+02  8.19106996778e+01 0.0000e+00 0.0000e+00
        2  1    3    3  505    0 -3.33450910240e+01 +9.58481073916e-01 -9.90650634662e+01  1.04530859467e+02  0.00000000000e+00 0.0000e+00 -1.0000e+00
       -1  1    3    3    0  505 +3.07815052770e+01 +3.01872552067e+01 -3.85274354970e+02  3.87679119946e+02  0.00000000000e+00 0.0000e+00 1.0000e+00
       24  2    1    2    0    0 -1.18367158338e+01 +7.53426038035e+00 +4.78905598695e+02  4.85855904945e+02  8.06753679120e+01 0.0000e+00 0.0000e+00
        2  1    6    6  506    0 -2.11114628018e+01 -2.74005072051e+00 +4.67323067790e+02  4.67807707748e+02  0.00000000000e+00 0.0000e+00 -1.0000e+00
       -1  1    6    6    0  506 +9.27474696795e+00 +1.02743111009e+01 +1.15825309047e+01  1.80481971974e+01  0.00000000000e+00 0.0000e+00 1.0000e+00
       21  1    1    2  503  501 -4.12443777125e+01 -2.29863388483e+01 +8.16354061039e+01  9.43069986602e+01  0.00000000000e+00 0.0000e+00 1.0000e+00
       21  1    1    2  504  502 -1.34088367983e+01 +7.12826438359e+01 -2.06291293474e+02  2.18671237203e+02  0.00000000000e+00 0.0000e+00 1.0000e+00
        1  1    1    2  502    0 +3.50062270270e+01 -1.89199000065e+02 +7.82137640564e+02  8.05457004653e+02  0.00000000000e+00 0.0000e+00 -1.0000e+00
       -2  1    1    2    0  504 +3.40472890646e+01 +1.02222698416e+02 -4.71956628252e+02  4.84098912326e+02  0.00000000000e+00 0.0000e+00 1.0000e+00
#  0.1300000e+05  0.1300000e+05  0.4712625e+02  0.4739901e+02  0.1300000e+05  0.1300000e+05
<mgrwt>
<rscale>  2 0.13462363e+03</rscale>
<asrwt>  2 0.47126246e+02 0.47399014e+02</asrwt>
<pdfrwt beam="1">  2        2        2 0.21236087e+00 0.19773904e+00 0.47126246e+02 0.13481248e+03</pdfrwt>
<pdfrwt beam="2">  1       -1 0.18465452e+00 0.85623287e+02</pdfrwt>
<totfact> 0.12781584e-03</totfact>
</mgrwt>
<clustering>
<clus scale="   47.126">  1  5  2 -1</clus>
<clus scale="   47.399">  6  8 -1 -1</clus>
<clus scale="   85.145">  1  4  2 -1</clus>
<clus scale="   85.623">  2  3  1 -1</clus>
<clus scale="  204.102">  1  7  2 -1</clus>
<clus scale="  212.260">  1  3  2 -1</clus>
</clustering>
<rwgt>
  <wgt id="1">5.87289e-06</wgt>
  <wgt id="2">3.74369e-06</wgt>
  <wgt id="3">2.6008e-06</wgt>
  <wgt id="4">4.43186e-06</wgt>
  <wgt id="5">2.8251e-06</wgt>
  <wgt id="6">1.96264e-06</wgt>
  <wgt id="7">3.50038e-06</wgt>
  <wgt id="8">2.23132e-06</wgt>
  <wgt id="9">1.55013e-06</wgt>
  <wgt id="10">4.89258e-06</wgt>
  <wgt id="11">2.8251e-06</wgt>
  <wgt id="12">1.84602e-06</wgt>
  <wgt id="13">2.8251e-06</wgt>
  <wgt id="14">2.8299e-06</wgt>
  <wgt id="15">2.82177e-06</wgt>
  <wgt id="16">2.83673e-06</wgt>
  <wgt id="17">2.81253e-06</wgt>
  <wgt id="18">2.80844e-06</wgt>
  <wgt id="19">2.85107e-06</wgt>
  <wgt id="20">2.84972e-06</wgt>
  <wgt id="21">2.80903e-06</wgt>
  <wgt id="22">2.83967e-06</wgt>
  <wgt id="23">2.80486e-06</wgt>
  <wgt id="24">2.90234e-06</wgt>
  <wgt id="25">2.77855e-06</wgt>
  <wgt id="26">2.82544e-06</wgt>
  <wgt id="27">2.82568e-06</wgt>
  <wgt id="28">2.8633e-06</wgt>
  <wgt id="29">2.81197e-06</wgt>
  <wgt id="30">2.80754e-06</wgt>
  <wgt id="31">2.84813e-06</wgt>
  <wgt id="32">2.83718e-06</wgt>
  <wgt id="33">2.81405e-06</wgt>
  <wgt id="34">2.82623e-06</wgt>
  <wgt id="35">2.82514e-06</wgt>
  <wgt id="36">2.79617e-06</wgt>
  <wgt id="37">2.84135e-06</wgt>
  <wgt id="38">2.95903e-06</wgt>
  <wgt id="39">2.76518e-06</wgt>
  <wgt id="40">2.82126e-06</wgt>
  <wgt id="41">2.83039e-06</wgt>
  <wgt id="42">2.82389e-06</wgt>
  <wgt id="43">2.81311e-06</wgt>
  <wgt id="44">2.90271e-06</wgt>
  <wgt id="45">2.79269e-06</wgt>
  <wgt id="46">2.88628e-06</wgt>
  <wgt id="47">2.78489e-06</wgt>
  <wgt id="48">2.84874e-06</wgt>
  <wgt id="49">2.81095e-06</wgt>
  <wgt id="50">2.81484e-06</wgt>
  <wgt id="51">2.84899e-06</wgt>
  <wgt id="52">2.7851e-06</wgt>
  <wgt id="53">2.83696e-06</wgt>
</rwgt>
</event>
<event>
 10      0 +2.8251000e-06 1.68854600e+02 7.54677100e-03 1.12523200e-01
        2 -1    0    0  501    0 +0.00000000000e+00 +0.00000000000e+00 +2.24590503470e+03  2.24590503470e+03  0.00000000000e+00 0.0000e+00 -1.0000e+00
       -3 -1    0    0    0  501 +0.00000000000e+00 +0.00000000000e+00 -3.64599670810e+01  3.64599670810e+01  0.00000000000e+00 0.0000e+00 1.0000e+00
       24  2    1    2    0    0 +1.29980634654e+01 +1.12754422119e+02 +4.65429498113e+02  4.85762544887e+02  8.03624473203e+01 0.0000e+00 0.0000e+00
        2  1    3    3  503    0 -2.80289779154e+00 +8.84228459415e+01 +4.34263278525e+02  4.43182864059e+02  0.00000000000e+00 0.0000e+00 -1.0000e+00
       -1  1    3    3    0  503 +1.58009612570e+01 +2.43315761779e+01 +3.11662195888e+01  4.25796808279e+01  0.00000000000e+00 0.0000e+00 1.0000e+00
       24  2    1    2    0    0 +1.43442895756e+01 +1.51581491690e+01 +1.27416495475e+02  1.48348849674e+02  7.30540194010e+01 0.0000e+00 0.0000e+00
        2  1    6    6  504    0 -2.77731745317e+01 +1.56947339163e+01 +7.19234946626e+01  7.86807662695e+01  0.00000000000e+00 0.0000e+00 -1.0000e+00
       -1  1    6    6    0  504 +4.21174641072e+01 -5.36584747299e-01 +5.54930008125e+01  6.96680834040e+01  0.00000000000e+00 0.0000e+00 1.0000e+00
        1  1    1    2  502    0 -1.44890221576e+02 -1.22659036102e+02 +1.21607937916e+03  1.23080765023e+03  0.00000000000e+00 0.0000e+00 -1.0000e+00
       -4  1    1    2    0  502 +1.17547868535e+02 -5.25353518595e+00 +4.00519694868e+02  4.17445956989e+02  0.00000000000e+00 0.0000e+00 1.0000e+00
#  0.1300000e+05  0.1300000e+05  0.1300000e+05  0.1300000e+05
<mgrwt>
<rscale>  2 0.14204314e+03</rscale>
<asrwt>0</asrwt>
<pdfrwt beam="1">  1        2 0.34552385e+00 0.16885465e+03</pdfrwt>
<pdfrwt beam="2">  1       -3 0.56092257e-02 0.84555528e+02</pdfrwt>
<totfact> 0.99549241e+00</totfact>
</mgrwt>
<clustering>
<clus scale="   84.556">  2  4  1 -1</clus>
<clus scale="  117.103">  2  6  1 -1</clus>
<clus scale="  148.475">  2  5  1 -1</clus>
<clus scale="  168.855">  1  3  2 -1</clus>
</clustering>
<rwgt>
  <wgt id="1">4.23783e-06</wgt>
  <wgt id="2">2.71238e-06</wgt>
  <wgt id="3">1.88936e-06</wgt>
  <wgt id="4">4.41395e-06</wgt>
  <wgt id="5">2.8251e-06</wgt>
  <wgt id="6">1.96787e-06</wgt>
  <wgt id="7">4.37524e-06</wgt>
  <wgt id="8">2.80032e-06</wgt>
  <wgt id="9">1.95062e-06</wgt>
  <wgt id="10">2.8251e-06</wgt>
  <wgt id="11">2.8251e-06</wgt>
  <wgt id="12">2.8251e-06</wgt>
  <wgt id="13">2.8251e-06</wgt>
  <wgt id="14">2.8277e-06</wgt>
  <wgt id="15">2.823e-06</wgt>
  <wgt id="16">2.80369e-06</wgt>
  <wgt id="17">2.84926e-06</wgt>
  <wgt id="18">2.83066e-06</wgt>
  <wgt id="19">2.81679e-06</wgt>
  <wgt id="20">2.81663e-06</wgt>
  <wgt id="21">2.83082e-06</wgt>
  <wgt id="22">2.83009e-06</wgt>
  <wgt id="23">2.81811e-06</wgt>
  <wgt id="24">2.8518e-06</wgt>
  <wgt id="25">2.80872e-06</wgt>
  <wgt id="26">2.83151e-06</wgt>
  <wgt id="27">2.81637e-06</wgt>
  <wgt id="28">2.83541e-06</wgt>
  <wgt id="29">2.82127e-06</wgt>
  <wgt id="30">2.83891e-06</wgt>
  <wgt id="31">2.79966e-06</wgt>
  <wgt id="32">2.8173e-06</wgt>
  <wgt id="33">2.83255e-06</wgt>
  <wgt id="34">2.77673e-06</wgt>
  <wgt id="35">2.9117e-06</wgt>
  <wgt id="36">2.84862e-06</wgt>
  <wgt id="37">2.81166e-06</wgt>
  <wgt id="38">2.83162e-06</wgt>
  <wgt id="39">2.82252e-06</wgt>
  <wgt id="40">2.84045e-06</wgt>
  <wgt id="41">2.81373e-06</wgt>
  <wgt id="42">2.83784e-06</wgt>
  <wgt id="43">2.80749e-06</wgt>
  <wgt id="44">2.81631e-06</wgt>
  <wgt id="45">2.82866e-06</wgt>
  <wgt id="46">2.85009e-06</wgt>
  <wgt id="47">2.80856e-06</wgt>
  <wgt id="48">2.82768e-06</wgt>
  <wgt id="49">2.82833e-06</wgt>
  <wgt id="50">2.80445e-06</wgt>
  <wgt id="51">2.83222e-06</wgt>
  <wgt id="52">2.8111e-06</wgt>
  <wgt id="53">2.82658e-06</wgt>
</rwgt>
</event>
<event>
 11      0 +2.8251000e-06 1.30176900e+03 7.54677100e-03 8.72145300e-02
        2 -1    0    0  502    0 +0.00000000000e+00 +0.00000000000e+00 +2.14987163680e+03  2.14987163680e+03  0.00000000000e+00 0.0000e+00 -1.0000e+00
        2 -1    0    0  503    0 +0.00000000000e+00 +0.00000000000e+00 -5.41028909150e+02  5.41028909150e+02  0.00000000000e+00 0.0000e+00 -1.0000e+00
       24  2    1    2    0    0 +8.71506880193e+01 -1.59290193474e+02 -2.60776198997e+02  3.27326461678e+02  7.85479369062e+01 0.0000e+00 0.0000e+00
        4  1    3    3  504    0 +9.40306839364e+01 -1.10034237691e+02 -2.18290366496e+02  2.61915992430e+02  0.00000000000e+00 0.0000e+00 -1.0000e+00
       -3  1    3    3    0  504 -6.87999591714e+00 -4.92559557834e+01 -4.24858325014e+01  6.54104692484e+01  0.00000000000e+00 0.0000e+00 1.0000e+00
       24  2    1    2    0    0 -1.79233160123e+02 +1.73485330442e+02 +5.91161992729e+02  6.46376244456e+02  7.81540925549e+01 0.0000e+00 0.0000e+00
        4  1    6    6  505    0 -2.84110588984e+01 +7.22741080485e+01 +1.41379059127e+02  1.61303358060e+02  0.00000000000e+00 0.0000e+00 -1.0000e+00
       -3  1    6    6    0  505 -1.50822101225e+02 +1.01211222393e+02 +4.49782933602e+02  4.85072886396e+02  0.00000000000e+00 0.0000e+00 1.0000e+00
       21  1    1    2  503  501 +1.24921720203e+02 -2.07247653674e+00 -5.81546756094e+01  1.37810368378e+02  0.00000000000e+00 0.0000e+00 -1.0000e+00
        1  1    1    2  501    0 -6.08417998010e+01 -2.11245117517e+02 -7.84945542342e+00  2.19972357873e+02  0.00000000000e+00 0.0000e+00 -1.0000e+00
        1  1    1    2  502    0 +2.80025517024e+01 +1.99122457086e+02 +1.34446106495e+03  1.35941511356e+03  0.00000000000e+00 0.0000e+00 -1.0000e+00
#  0.1300000e+05  0.1300000e+05  0.1249389e+03  0.1300000e+05  0.1300000e+05
<mgrwt>
<rscale>  2 0.10847877e+04</rscale>
<asrwt>  1 0.12493891e+03</asrwt>
<pdfrwt beam="1">  1        2 0.33074948e+00 0.62773681e+03</pdfrwt>
<pdfrwt beam="2">  2        2        2 0.83235217e-01 0.66618993e-01 0.12493891e+03 0.13017687e+04</pdfrwt>
<totfact> 0.44201483e-02</totfact>
</mgrwt>
<clustering>
<clus scale="  124.939">  2  5  1 -1</clus>
<clus scale="  200.687">  3  7 -1 -1</clus>
<clus scale="  212.953">  4  6 -1 -1</clus>
<clus scale="  627.737">  1  4  2 -1</clus>
<clus scale=" 1301.769">  1  3  2 -1</clus>
</clustering>
<rwgt>
  <wgt id="1">4.60947e-06</wgt>
  <wgt id="2">3.30584e-06</wgt>
  <wgt id="3">2.48958e-06</wgt>
  <wgt id="4">3.93916e-06</wgt>
  <wgt id="5">2.8251e-06</wgt>
  <wgt id="6">2.12754e-06</wgt>
  <wgt id="7">3.42618e-06</wgt>
  <wgt id="8">2.4572e-06</wgt>
  <wgt id="9">1.85048e-06</wgt>
  <wgt id="10">3.54843e-06</wgt>
  <wgt id="11">2.8251e-06</wgt>
  <wgt id="12">2.35016e-06</wgt>
  <wgt id="13">2.8251e-06</wgt>
  <wgt id="14">2.82824e-06</wgt>
  <wgt id="15">2.82243e-06</wgt>
  <wgt id="16">2.8101e-06</wgt>
  <wgt id="17">2.84176e-06</wgt>
  <wgt id="18">2.81062e-06</wgt>
  <wgt id="19">2.84653e-06</wgt>
  <wgt id="20">2.81598e-06</wgt>
  <wgt id="21">2.83123e-06</wgt>
  <wgt id="22">2.83341e-06</wgt>
  <wgt id="23">2.81319e-06</wgt>
  <wgt id="24">2.87085e-06</wgt>
  <wgt id="25">2.79695e-06</wgt>
  <wgt id="26">2.82488e-06</wgt>
  <wgt id="27">2.82539e-06</wgt>
  <wgt id="28">2.86562e-06</wgt>
  <wgt id="29">2.81032e-06</wgt>
  <wgt id="30">2.82901e-06</wgt>
  <wgt id="31">2.82011e-06</wgt>
  <wgt id="32">2.82406e-06</wgt>
  <wgt id="33">2.82609e-06</wgt>
  <wgt id="34">2.785e-06</wgt>
  <wgt id="35">2.89936e-06</wgt>
  <wgt id="36">2.84118e-06</wgt>
  <wgt id="37">2.81795e-06</wgt>
  <wgt id="38">2.81595e-06</wgt>
  <wgt id="39">2.83013e-06</wgt>
  <wgt id="40">2.83308e-06</wgt>
  <wgt id="41">2.81722e-06</wgt>
  <wgt id="42">2.84734e-06</wgt>
  <wgt id="43">2.78826e-06</wgt>
  <wgt id="44">2.83437e-06</wgt>
  <wgt id="45">2.82154e-06</wgt>
  <wgt id="46">2.82453e-06</wgt>
  <wgt id="47">2.82557e-06</wgt>
  <wgt id="48">2.82093e-06</wgt>
  <wgt id="49">2.83173e-06</wgt>
  <wgt id="50">2.81662e-06</wgt>
  <wgt id="51">2.83835e-06</wgt>
  <wgt id="52">2.83731e-06</wgt>
  <wgt id="53">2.82218e-06</wgt>
</rwgt>
</event>
<event>
 12      0 +2.8251000e-06 2.31319400e+02 7.54677100e-03 1.07169200e-01
        2 -1    0    0  501    0 +0.00000000000e+00 +0.00000000000e+00 +1.99924588320e+03  1.99924588320e+03  0.00000000000e+00 0.0000e+00 -1.0000e+00
       21 -1    0    0  504  503 +0.00000000000e+00 +0.00000000000e+00 -6.43740854820e+02  6.43740854820e+02  0.00000000000e+00 0.0000e+00 1.0000e+00
       24  2    1    2    0    0 -1.24076226894e+01 +7.47120617330e+01 +2.26385611241e+01  1.12337379563e+02  7.98206810798e+01 0.0000e+00 0.0000e+00
       14  1    3    3    0    0 +2.95297616408e+01 +5.28244207530e+01 +2.37688760602e+01  6.50183490994e+01  0.00000000000e+00 0.0000e+00 -1.0000e+00
      -13  1    3    3    0    0 -4.19373843302e+01 +2.18876409800e+01 -1.13031493605e+00  4.73190304633e+01  0.00000000000e+00 0.0000e+00 1.0000e+00
       24  2    1    2    0    0 +9.81778397811e+01 +8.35918736883e-01 +3.68781136724e+02  3.90072457570e+02  8.07304674003e+01 0.0000e+00 0.0000e+00
       12  1    6    6    0    0 +8.75884442328e+01 +2.54698895579e+01 +2.08730379286e+02  2.27791180852e+02  0.00000000000e+00 0.0000e+00 -1.0000e+00
      -11  1    6    6    0    0 +1.05893955483e+01 -2.46339708210e+01 +1.60050757438e+02  1.62281276717e+02  0.00000000000e+00 0.0000e+00 1.0000e+00
       21  1    1    2  504  502 +1.67326516586e+01 +3.65307104737e+01 -1.76722707960e+02  1.81232971470e+02  0.00000000000e+00 0.0000e+00 1.0000e+00
        1  1    1    2  501    0 -1.03090578510e+02 +1.75463772988e+01 +2.23138465933e+02  2.46427104257e+02  0.00000000000e+00 0.0000e+00 -1.0000e+00
        1  1    1    2  502    0 -2.72001186111e+01 -5.28705776107e+01 +1.31042247856e+03  1.31177064182e+03  0.00000000000e+00 0.0000e+00 -1.0000e+00
       -2  1    1    2    0  503 +2.77878283704e+01 -7.67544906316e+01 -3.92752905999e+02  4.01146183341e+02  0.00000000000e+00 0.0000e+00 1.0000e+00
#  0.1300000e+05  0.1300000e+05  0.4018052e+02  0.1300000e+05  0.1300000e+05  0.6201458e+02
<mgrwt>
<rscale>  2 0.20126864e+03</rscale>
<asrwt>  2 0.40180523e+02 0.62014580e+02</asrwt>
<pdfrwt beam="1">  3       21       21        2 0.99037055e-01 0.71390289e-01 0.10329916e-01 0.40180523e+02 0.62014580e+02 0.23131938e+03</pdfrwt>
<pdfrwt beam="2">  1        2 0.30757629e+00 0.13257708e+03</pdfrwt>
<totfact> 0.22964628e-02</totfact>
</mgrwt>
<clustering>
<clus scale="   40.181">  2  5  1 -1</clus>
<clus scale="   62.015">  2  8  1 -1</clus>
<clus scale="   95.807">  3  6 -1 -1</clus>
<clus scale="  132.577">  1  4  2 -1</clus>
<clus scale="   83.991">  1  7  2 -1</clus>
<clus scale="  231.319">  2  3  1 -1</clus>
</clustering>
<rwgt>
  <wgt id="1">4.69016e-06</wgt>
  <wgt id="2">3.07768e-06</wgt>
  <wgt id="3">2.17915e-06</wgt>
  <wgt id="4">4.30525e-06</wgt>
  <wgt id="5">2.8251e-06</wgt>
  <wgt id="6">2.00031e-06</wgt>
  <wgt id="7">3.98996e-06</wgt>
  <wgt id="8">2.61821e-06</wgt>
  <wgt id="9">1.85382e-06</wgt>
  <wgt id="10">4.86693e-06</wgt>
  <wgt id="11">2.8251e-06</wgt>
  <wgt id="12">1.85186e-06</wgt>
  <wgt id="13">2.8251e-06</wgt>
  <wgt id="14">2.83342e-06</wgt>
  <wgt id="15">2.81836e-06</wgt>
  <wgt id="16">2.81132e-06</wgt>
  <wgt id="17">2.8408e-06</wgt>
  <wgt id="18">2.81771e-06</wgt>
  <wgt id="19">2.83616e-06</wgt>
  <wgt id="20">2.8244e-06</wgt>
  <wgt id="21">2.82571e-06</wgt>
  <wgt id="22">2.82799e-06</wgt>
  <wgt id="23">2.82102e-06</wgt>
  <wgt id="24">2.83923e-06</wgt>
  <wgt id="25">2.81637e-06</wgt>
  <wgt id="26">2.82746e-06</wgt>
  <wgt id="27">2.82195e-06</wgt>
  <wgt id="28">2.84762e-06</wgt>
  <wgt id="29">2.81681e-06</wgt>
  <wgt id="30">2.80385e-06</wgt>
  <wgt id="31">2.85139e-06</wgt>
  <wgt id="32">2.82458e-06</wgt>
  <wgt id="33">2.82538e-06</wgt>
  <wgt id="34">2.8319e-06</wgt>
  <wgt id="35">2.81521e-06</wgt>
  <wgt id="36">2.80855e-06</wgt>
  <wgt id="37">2.837e-06</wgt>
  <wgt id="38">2.80794e-06</wgt>
  <wgt id="39">2.83406e-06</wgt>
  <wgt id="40">2.82334e-06</wgt>
  <wgt id="41">2.82649e-06</wgt>
  <wgt id="42">2.82466e-06</wgt>
  <wgt id="43">2.82876e-06</wgt>
  <wgt id="44">2.82353e-06</wgt>
  <wgt id="45">2.82595e-06</wgt>
  <wgt id="46">2.82766e-06</wgt>
  <wgt id="47">2.8234e-06</wgt>
  <wgt id="48">2.84017e-06</wgt>
  <wgt id="49">2.82149e-06</wgt>
  <wgt id="50">2.85285e-06</wgt>
  <wgt id="51">2.81267e-06</wgt>
  <wgt id="52">2.83859e-06</wgt>
  <wgt id="53">2.82185e-06</wgt>
</rwgt>
</event>
<event>
 10      0 +2.8251000e-06 4.59410100e+02 7.54677100e-03 1.00400000e-01
        2 -1    0    0  502    0 +0.00000000000e+00 +0.00000000000e+00 +1.51587638780e+03  1.51587638780e+03  0.00000000000e+00 0.0000e+00 -1.0000e+00
       -1 -1    0    0    0  501 +0.00000000000e+00 +0.00000000000e+00 -5.61263382430e+01  5.61263382430e+01  0.00000000000e+00 0.0000e+00 1.0000e+00
       24  2    1    2    0    0 +1.48191530343e+01 -9.51228796131e+01 +2.65579005320e+02  2.92233353518e+02  7.48341854992e+01 0.0000e+00 0.0000e+00
        2  1    3    3  503    0 -5.00932696201e-01 +7.24543530123e+00 +7.17995444832e-02  7.26308622040e+00  0.00000000000e+00 0.0000e+00 -1.0000e+00
       -1  1    3    3    0  503 +1.53200857305e+01 -1.02368314914e+02 +2.65507205775e+02  2.84970267298e+02  0.00000000000e+00 0.0000e+00 1.0000e+00
       24  2    1    2    0    0 -2.86752151524e+00 +1.21161924029e+02 +3.12781514470e+02  3.45116980704e+02  8.11481365282e+01 0.0000e+00 0.0000e+00
        2  1    6    6  504    0 -2.45370693193e+01 +2.06424021146e+01 +2.88306527297e+01  4.31205643824e+01  0.00000000000e+00 0.0000e+00 -1.0000e+00
       -1  1    6    6    0  504 +2.16695478041e+01 +1.00519521914e+02 +2.83950861740e+02  3.01996416321e+02  0.00000000000e+00 0.0000e+00 1.0000e+00
        3  1    1    2  502    0 -3.63836787776e+01 -9.26301397056e+01 +8.52131909624e+02  8.57923601646e+02  0.00000000000e+00 0.0000e+00 -1.0000e+00
       -4  1    1    2    0  501 +2.44320472585e+01 +6.65910952901e+01 +2.92576201435e+01  7.67287901745e+01  0.00000000000e+00 0.0000e+00 1.0000e+00
#  0.1300000e+05  0.1300000e+05  0.1300000e+05  0.7103139e+02
<mgrwt>
<rscale>  1 0.33018839e+03</rscale>
<asrwt>  1 0.71031390e+02</asrwt>
<pdfrwt beam="1">  1        2 0.23321175e+00 0.45941009e+03</pdfrwt>
<pdfrwt beam="2">  1       -1 0.86348213e-02 0.12258734e+03</pdfrwt>
<totfact> 0.14369211e+01</totfact>
</mgrwt>
<clustering>
<clus scale="  101.440">  4  5 -1 -1</clus>
<clus scale="   71.031">  4  6 -1 -1</clus>
<clus scale="  122.587">  2  3  1 -1</clus>
<clus scale="  459.410">  1  3  2 -1</clus>
</clustering>
<rwgt>
  <wgt id="1">3.35649e-06</wgt>
  <wgt id="2">2.76116e-06</wgt>
  <wgt id="3">2.34767e-06</wgt>
  <wgt id="4">3.43422e-06</wgt>
  <wgt id="5">2.8251e-06</wgt>
  <wgt id="6">2.40204e-06</wgt>
  <wgt id="7">3.40704e-06</wgt>
  <wgt id="8">2.80274e-06</wgt>
  <wgt id="9">2.38303e-06</wgt>
  <wgt id="10">3.63787e-06</wgt>
  <wgt id="11">2.8251e-06</wgt>
  <wgt id="12">2.31369e-06</wgt>
  <wgt id="13">2.8251e-06</wgt>
  <wgt id="14">2.82886e-06</wgt>
  <wgt id="15">2.82204e-06</wgt>
  <wgt id="16">2.82608e-06</wgt>
  <wgt id="17">2.82396e-06</wgt>
  <wgt id="18">2.81443e-06</wgt>
  <wgt id="19">2.84094e-06</wgt>
  <wgt id="20">2.82772e-06</wgt>
  <wgt id="21">2.82342e-06</wgt>
  <wgt id="22">2.83058e-06</wgt>
  <wgt id="23">2.81745e-06</wgt>
  <wgt id="24">2.85335e-06</wgt>
  <wgt id="25">2.80774e-06</wgt>
  <wgt id="26">2.82887e-06</wgt>
  <wgt id="27">2.82006e-06</wgt>
  <wgt id="28">2.84472e-06</wgt>
  <wgt id="29">2.81796e-06</wgt>
  <wgt id="30">2.83926e-06</wgt>
  <wgt id="31">2.80306e-06</wgt>
  <wgt id="32">2.82802e-06</wgt>
  <wgt id="33">2.82233e-06</wgt>
  <wgt id="34">2.78606e-06</wgt>
  <wgt id="35">2.89566e-06</wgt>
  <wgt id="36">2.84895e-06</wgt>
  <wgt id="37">2.81154e-06</wgt>
  <wgt id="38">2.82032e-06</wgt>
  <wgt id="39">2.82771e-06</wgt>
  <wgt id="40">2.82937e-06</wgt>
  <wgt id="41">2.82328e-06</wgt>
  <wgt id="42">2.83836e-06</wgt>
  <wgt id="43">2.7989e-06</wgt>
  <wgt id="44">2.82948e-06</wgt>
  <wgt id="45">2.82358e-06</wgt>
  <wgt id="46">2.81584e-06</wgt>
  <wgt id="47">2.83124e-06</wgt>
  <wgt id="48">2.83063e-06</wgt>
  <wgt id="49">2.82494e-06</wgt>
  <wgt id="50">2.81318e-06</wgt>
  <wgt id="51">2.82371e-06</wgt>
  <wgt id="52">2.83925e-06</wgt>
  <wgt id="53">2.82152e-06</wgt>
</rwgt>
</event>
<event>
 12      0 +2.8251000e-06 1.06874900e+03 7.54677100e-03 9.28233600e-02
        2 -1    0    0  504    0 +0.00000000000e+00 +0.00000000000e+00 +2.00777644830e+03  2.00777644830e+03  0.00000000000e+00 0.0000e+00 -1.0000e+00
        2 -1    0    0  503    0 +0.00000000000e+00 +0.00000000000e+00 -4.23193980210e+02  4.23193980210e+02  0.00000000000e+00 0.0000e+00 -1.0000e+00
       24  2    1    2    0    0 +2.20843318705e+02 -2.10583477718e+02 +1.22979466761e+03  1.26962309237e+03  8.01916435193e+01 0.0000e+00 0.0000e+00
        4  1    3    3  505    0 +1.44262912454e+02 -9.63770306155e+01 +7.90314522972e+02  8.09133712782e+02  0.00000000000e+00 0.0000e+00 -1.0000e+00
       -3  1    3    3    0  505 +7.65804062514e+01 -1.14206447103e+02 +4.39480144635e+02  4.60489379584e+02  0.00000000000e+00 0.0000e+00 1.0000e+00
       24  2    1    2    0    0 -8.89900254459e+01 -9.76909988277e+00 -4.63474458171e+01  1.28427596043e+02  7.95669639373e+01 0.0000e+00 0.0000e+00
        2  1    6    6  506    0 -4.56714319229e+01 -3.51411962011e+01 -5.23671781917e+01  7.78659406679e+01  0.00000000000e+00 0.0000e+00 -1.0000e+00
       -1  1    6    6    0  506 -4.33185935230e+01 +2.53720963183e+01 +6.01973237455e+00  5.05616553750e+01  0.00000000000e+00 0.0000e+00 1.0000e+00
       21  1    1    2  503  502 -2.78927223810e+01 -4.50220245870e+01 +4.85533295030e+00  5.31842168110e+01  0.00000000000e+00 0.0000e+00 -1.0000e+00
       21  1    1    2  504  501 -5.23334154170e+01 +7.23013670709e+01 +4.88665176913e+02  4.96749362533e+02  0.00000000000e+00 0.0000e+00 1.0000e+00
        1  1    1    2  501    0 -1.29517320479e+02 +1.82511358886e+02 +1.21827150409e+02  2.54807745179e+02  0.00000000000e+00 0.0000e+00 -1.0000e+00
        1  1    1    2  502    0 +7.78901650171e+01 +1.05618762314e+01 -2.14212413972e+02  2.28178415578e+02  0.00000000000e+00 0.0000e+00 -1.0000e+00
#  0.1300000e+05  0.1300000e+05  0.5296212e+02  0.8902819e+02  0.1300000e+05  0.1300000e+05
<mgrwt>
<rscale>  2 0.62708171e+03</rscale>
<asrwt>  2 0.52962125e+02 0.89028193e+02</asrwt>
<pdfrwt beam="1">  2        2        2 0.30888868e+00 0.22916754e+00 0.89028193e+02 0.10687487e+04</pdfrwt>
<pdfrwt beam="2">  2        2        2 0.65106766e-01 0.60448127e-01 0.52962125e+02 0.10687487e+04</pdfrwt>
<totfact> 0.11413418e-02</totfact>
</mgrwt>
<clustering>
<clus scale="   52.962">  2  5  1 -1</clus>
<clus scale="   63.741">  3  8 -1 -1</clus>
<clus scale="   89.028">  1  6  2 -1</clus>
<clus scale="  126.669">  2  4  1 -1</clus>
<clus scale="  243.218">  2  7  1 -1</clus>
<clus scale=" 1068.749">  1  3  2 -1</clus>
</clustering>
<rwgt>
  <wgt id="1">4.48727e-06</wgt>
  <wgt id="2">3.14058e-06</wgt>
  <wgt id="3">2.32422e-06</wgt>
  <wgt id="4">4.03651e-06</wgt>
  <wgt id="5">2.8251e-06</wgt>
  <wgt id="6">2.09075e-06</wgt>
  <wgt id="7">3.66234e-06</wgt>
  <wgt id="8">2.56322e-06</wgt>
  <wgt id="9">1.89694e-06</wgt>
  <wgt id="10">4.70589e-06</wgt>
  <wgt id="11">2.8251e-06</wgt>
  <wgt id="12">1.88983e-06</wgt>
  <wgt id="13">2.8251e-06</wgt>
  <wgt id="14">2.82839e-06</wgt>
  <wgt id="15">2.82247e-06</wgt>
  <wgt id="16">2.8125e-06</wgt>
  <wgt id="17">2.83912e-06</wgt>
  <wgt id="18">2.81125e-06</wgt>
  <wgt id="19">2.84575e-06</wgt>
  <wgt id="20">2.8169e-06</wgt>
  <wgt id="21">2.8307e-06</wgt>
  <wgt id="22">2.83305e-06</wgt>
  <wgt id="23">2.81375e-06</wgt>
  <wgt id="24">2.86897e-06</wgt>
  <wgt id="25">2.79816e-06</wgt>
  <wgt id="26">2.8249e-06</wgt>
  <wgt id="27">2.82544e-06</wgt>
  <wgt id="28">2.86487e-06</wgt>
  <wgt id="29">2.81066e-06</wgt>
  <wgt id="30">2.82925e-06</wgt>
  <wgt id="31">2.81992e-06</wgt>
  <wgt id="32">2.82522e-06</wgt>
  <wgt id="33">2.82498e-06</wgt>
  <wgt id="34">2.78621e-06</wgt>
  <wgt id="35">2.89712e-06</wgt>
  <wgt id="36">2.83498e-06</wgt>
  <wgt id="37">2.82176e-06</wgt>
  <wgt id="38">2.81754e-06</wgt>
  <wgt id="39">2.82945e-06</wgt>
  <wgt id="40">2.83206e-06</wgt>
  <wgt id="41">2.81832e-06</wgt>
  <wgt id="42">2.84662e-06</wgt>
  <wgt id="43">2.78877e-06</wgt>
  <wgt id="44">2.83397e-06</wgt>
  <wgt id="45">2.82167e-06</wgt>
  <wgt id="46">2.82412e-06</wgt>
  <wgt id="47">2.8259e-06</wgt>
  <wgt id="48">2.81721e-06</wgt>
  <wgt id="49">2.83316e-06</wgt>
  <wgt id="50">2.81679e-06</wgt>
  <wgt id="51">2.83769e-06</wgt>
  <wgt id="52">2.83531e-06</wgt>
  <wgt id="53">2.82262e-06</wgt>
</rwgt>
</event>
<event>
 10      0 +2.8251000e-06 1.99400000e+02 7.54677100e-03 1.09758700e-01
        2 -1    0    0  501    0 +0.00000000000e+00 +0.00000000000e+00 +1.57694442660e+02  1.57694442660e+02  0.00000000000e+00 0.0000e+00 -1.0000e+00
        2 -1    0    0  502    0 +0.00000000000e+00 +0.00000000000e+00 -9.52415914000e+02  9.52415914000e+02  0.00000000000e+00 0.0000e+00 -1.0000e+00
       24  2    1    2    0    0 +1.59623129502e+01 -4.13721170001e+01 -2.03311828972e+02  2.22783017698e+02  7.95620869182e+01 0.0000e+00 0.0000e+00
        2  1    3    3  503    0 +2.64324968741e+01 +4.27657202149e+00 -1.95898067053e+01  3.31771982844e+01  0.00000000000e+00 0.0000e+00 -1.0000e+00
       -1  1    3    3    0  503 -1.04701839239e+01 -4.56486890216e+01 -1.83722022267e+02  1.89605819413e+02  0.00000000000e+00 0.0000e+00 1.0000e+00
       24  2    1    2    0    0 +5.32820335313e+01 +3.82353201408e+01 +8.19776406167e+01  1.31967193115e+02  7.99630645618e+01 0.0000e+00 0.0000e+00
       16  1    6    6    0    0 +3.51789971687e+01 +6.22094706267e+01 +6.86649080247e+01  9.91082724675e+01  0.00000000000e+00 0.0000e+00 -1.0000e+00
      -15  1    6    6    0    0 +1.81030363627e+01 -2.39741504858e+01 +1.33127325919e+01  3.28589206477e+01  1.77700000000e+00 0.0000e+00 1.0000e+00
        1  1    1    2  501    0 +5.16525811571e+01 -5.44810782392e+01 -5.95947887021e+02  6.00658023397e+02  0.00000000000e+00 0.0000e+00 -1.0000e+00
        1  1    1    2  502    0 -1.20896927639e+02 +5.76178750985e+01 -7.74393959633e+01  1.54702122450e+02  0.00000000000e+00 0.0000e+00 -1.0000e+00
#  0.1300000e+05  0.1300000e+05  0.1300000e+05  0.1300000e+05
<mgrwt>
<rscale>  2 0.16933304e+03</rscale>
<asrwt>0</asrwt>
<pdfrwt beam="1">  1        2 0.24260683e-01 0.10370295e+03</pdfrwt>
<pdfrwt beam="2">  1        2 0.14652553e+00 0.19940005e+03</pdfrwt>
<totfact> 0.11725163e+01</totfact>
</mgrwt>
<clustering>
<clus scale="   75.986">  3  5 -1 -1</clus>
<clus scale="  103.703">  1  4  2 -1</clus>
<clus scale="  118.003">  1  6  2 -1</clus>
<clus scale="  199.400">  1  3  2 -1</clus>
</clustering>
<rwgt>
  <wgt id="1">4.40072e-06</wgt>
  <wgt id="2">2.85355e-06</wgt>
  <wgt id="3">2.00446e-06</wgt>
  <wgt id="4">4.35684e-06</wgt>
  <wgt id="5">2.8251e-06</wgt>
  <wgt id="6">1.98447e-06</wgt>
  <wgt id="7">4.2413e-06</wgt>
  <wgt id="8">2.75018e-06</wgt>
  <wgt id="9">1.93185e-06</wgt>
  <wgt id="10">2.8251e-06</wgt>
  <wgt id="11">2.8251e-06</wgt>
  <wgt id="12">2.8251e-06</wgt>
  <wgt id="13">2.8251e-06</wgt>
  <wgt id="14">2.8286e-06</wgt>
  <wgt id="15">2.82226e-06</wgt>
  <wgt id="16">2.82701e-06</wgt>
  <wgt id="17">2.82283e-06</wgt>
  <wgt id="18">2.81433e-06</wgt>
  <wgt id="19">2.84104e-06</wgt>
  <wgt id="20">2.81697e-06</wgt>
  <wgt id="21">2.83058e-06</wgt>
  <wgt id="22">2.83043e-06</wgt>
  <wgt id="23">2.81759e-06</wgt>
  <wgt id="24">2.85491e-06</wgt>
  <wgt id="25">2.80668e-06</wgt>
  <wgt id="26">2.82466e-06</wgt>
  <wgt id="27">2.82576e-06</wgt>
  <wgt id="28">2.85499e-06</wgt>
  <wgt id="29">2.8142e-06</wgt>
  <wgt id="30">2.83401e-06</wgt>
  <wgt id="31">2.81329e-06</wgt>
  <wgt id="32">2.82977e-06</wgt>
  <wgt id="33">2.82066e-06</wgt>
  <wgt id="34">2.7945e-06</wgt>
  <wgt id="35">2.88061e-06</wgt>
  <wgt id="36">2.83546e-06</wgt>
  <wgt id="37">2.81912e-06</wgt>
  <wgt id="38">2.81739e-06</wgt>
  <wgt id="39">2.82882e-06</wgt>
  <wgt id="40">2.82598e-06</wgt>
  <wgt id="41">2.82495e-06</wgt>
  <wgt id="42">2.84287e-06</wgt>
  <wgt id="43">2.79057e-06</wgt>
  <wgt id="44">2.83329e-06</wgt>
  <wgt id="45">2.82191e-06</wgt>
  <wgt id="46">2.82204e-06</wgt>
  <wgt id="47">2.82746e-06</wgt>
  <wgt id="48">2.79991e-06</wgt>
  <wgt id="49">2.83796e-06</wgt>
  <wgt id="50">2.81301e-06</wgt>
  <wgt id="51">2.83321e-06</wgt>
  <wgt id="52">2.82798e-06</wgt>
  <wgt id="53">2.82417e-06</wgt>
</rwgt>
</event>
<event>
 10      0 +2.8251000e-06 1.18479300e+02 7.54677100e-03 1.15957000e-01
        2 -1    0    0  502    0 +0.00000000000e+00 +0.00000000000e+00 +1.09079530310e+03  1.09079530310e+03  0.00000000000e+00 0.0000e+00 -1.0000e+00
        2 -1    0    0  501    0 +0.00000000000e+00 +0.00000000000e+00 -2.10300468290e+02  2.10300468290e+02  0.00000000000e+00 0.0000e+00 -1.0000e+00
       24  2    1    2    0    0 -8.06347972129e-01 +1.39597711493e+01 +6.09261102499e+02  6.14602242090e+02  7.96322771013e+01 0.0000e+00 0.0000e+00
       16  1    3    3    0    0 +2.33162014343e+01 -2.25562596884e+01 +3.65530102524e+02  3.66966873099e+02  0.00000000000e+00 0.0000e+00 -1.0000e+00
      -15  1    3    3    0    0 -2.41225494064e+01 +3.65160308377e+01 +2.43730999975e+02  2.47635368992e+02  1.77700000000e+00 0.0000e+00 1.0000e+00
       24  2    1    2    0    0 -2.36573152625e+01 +3.67326321391e+01 -3.05434614036e+01  9.36373769754e+01  7.69811697950e+01 0.0000e+00 0.0000e+00
       16  1    6    6    0    0 -3.75415704588e+01 +4.89535147177e+01 -3.92480328412e+01  7.31178787824e+01  0.00000000000e+00 0.0000e+00 -1.0000e+00
      -15  1    6    6    0    0 +1.38842551963e+01 -1.22208825786e+01 +8.70457143759e+00  2.05194981930e+01  1.77700000000e+00 0.0000e+00 1.0000e+00
        1  1    1    2  501    0 -3.53749275806e+01 -1.68178222376e+02 +3.95410900965e+02  4.31143920965e+02  0.00000000000e+00 0.0000e+00 -1.0000e+00
        1  1    1    2  502    0 +5.98385908152e+01 +1.17485819088e+02 -9.36337072510e+01  1.61712231359e+02  0.00000000000e+00 0.0000e+00 -1.0000e+00
#  0.1300000e+05  0.1300000e+05  0.1300000e+05  0.1300000e+05
<mgrwt>
<rscale>  2 0.11565558e+03</rscale>
<asrwt>0</asrwt>
<pdfrwt beam="1">  1        2 0.16781466e+00 0.81504697e+02</pdfrwt>
<pdfrwt beam="2">  1        2 0.32353918e-01 0.89760634e+02</pdfrwt>
<totfact> 0.82830539e+00</totfact>
</mgrwt>
<clustering>
<clus scale="   81.505">  1  3  2 -1</clus>
<clus scale="   89.761">  2  4  1 -1</clus>
<clus scale="  156.386">  1  5  2 -1</clus>
<clus scale="  156.386">  1  3  2 -1</clus>
</clustering>
<rwgt>
  <wgt id="1">4.6879e-06</wgt>
  <wgt id="2">2.95364e-06</wgt>
  <wgt id="3">2.03566e-06</wgt>
  <wgt id="4">4.48389e-06</wgt>
  <wgt id="5">2.8251e-06</wgt>
  <wgt id="6">1.94708e-06</wgt>
  <wgt id="7">4.2485e-06</wgt>
  <wgt id="8">2.67679e-06</wgt>
  <wgt id="9">1.84486e-06</wgt>
  <wgt id="10">2.8251e-06</wgt>
  <wgt id="11">2.8251e-06</wgt>
  <wgt id="12">2.8251e-06</wgt>
  <wgt id="13">2.8251e-06</wgt>
  <wgt id="14">2.82842e-06</wgt>
  <wgt id="15">2.82234e-06</wgt>
  <wgt id="16">2.82494e-06</wgt>
  <wgt id="17">2.82507e-06</wgt>
  <wgt id="18">2.81366e-06</wgt>
  <wgt id="19">2.84203e-06</wgt>
  <wgt id="20">2.8162e-06</wgt>
  <wgt id="21">2.83107e-06</wgt>
  <wgt id="22">2.83097e-06</wgt>
  <wgt id="23">2.81677e-06</wgt>
  <wgt id="24">2.85794e-06</wgt>
  <wgt id="25">2.80478e-06</wgt>
  <wgt id="26">2.82436e-06</wgt>
  <wgt id="27">2.8261e-06</wgt>
  <wgt id="28">2.85943e-06</wgt>
  <wgt id="29">2.81258e-06</wgt>
  <wgt id="30">2.83278e-06</wgt>
  <wgt id="31">2.81501e-06</wgt>
  <wgt id="32">2.82993e-06</wgt>
  <wgt id="33">2.82054e-06</wgt>
  <wgt id="34">2.79293e-06</wgt>
  <wgt id="35">2.88356e-06</wgt>
  <wgt id="36">2.8353e-06</wgt>
  <wgt id="37">2.81939e-06</wgt>
  <wgt id="38">2.81689e-06</wgt>
  <wgt id="39">2.82905e-06</wgt>
  <wgt id="40">2.82597e-06</wgt>
  <wgt id="41">2.82472e-06</wgt>
  <wgt id="42">2.84472e-06</wgt>
  <wgt id="43">2.78808e-06</wgt>
  <wgt id="44">2.83356e-06</wgt>
  <wgt id="45">2.82181e-06</wgt>
  <wgt id="46">2.82266e-06</wgt>
  <wgt id="47">2.82702e-06</wgt>
  <wgt id="48">2.79966e-06</wgt>
  <wgt id="49">2.83848e-06</wgt>
  <wgt id="50">2.81406e-06</wgt>
  <wgt id="51">2.83444e-06</wgt>
  <wgt id="52">2.82858e-06</wgt>
  <wgt id="53">2.82399e-06</wgt>
</rwgt>
</event>
<event>
 10      0 +2.8251000e-06 3.17074900e+02 7.54677100e-03 1.04265000e-01
        2 -1    0    0  502    0 +0.00000000000e+00 +0.00000000000e+00 +6.52361480580e+01  6.52361480580e+01  0.00000000000e+00 0.0000e+00 -1.0000e+00
        2 -1    0    0  501    0 +0.00000000000e+00 +0.00000000000e+00 -1.32066082160e+03  1.32066082160e+03  0.00000000000e+00 0.0000e+00 -1.0000e+00
       24  2    1    2    0    0 -9.91682340097e+00 -1.24620837398e+00 -3.85658221385e+00  8.22290050011e+01  8.15281522876e+01 0.0000e+00 0.0000e+00
        2  1    3    3  503    0 -1.83024818033e+01 -2.85622480618e+01 -2.86461963261e+01  4.44003087653e+01  0.00000000000e+00 0.0000e+00 -1.0000e+00
       -1  1    3    3    0  503 +8.38565840238e+00 +2.73160396878e+01 +2.47896141122e+01  3.78286962358e+01  0.00000000000e+00 0.0000e+00 1.0000e+00
       24  2    1    2    0    0 -3.23851311292e+01 +7.78649647796e+01 -5.32051314758e+02  5.44642082359e+02  8.02785580498e+01 0.0000e+00 0.0000e+00
        2  1    6    6  504    0 -4.70142559674e-02 +4.93245235526e+01 -1.11974886319e+02  1.22357206572e+02  0.00000000000e+00 0.0000e+00 -1.0000e+00
       -1  1    6    6    0  504 -3.23381168733e+01 +2.85404412270e+01 -4.20076428439e+02  4.22284875787e+02  0.00000000000e+00 0.0000e+00 1.0000e+00
        1  1    1    2  501    0 +9.86560168342e+00 +4.29451365289e+01 -5.34798868062e+02  5.36611073431e+02  0.00000000000e+00 0.0000e+00 -1.0000e+00
        1  1    1    2  502    0 +3.24363528468e+01 -1.19563892935e+02 -1.84717908508e+02  2.22414808867e+02  0.00000000000e+00 0.0000e+00 -1.0000e+00
#  0.1300000e+05  0.1300000e+05  0.1300000e+05  0.1300000e+05
<mgrwt>
<rscale>  2 0.24690953e+03</rscale>
<asrwt>0</asrwt>
<pdfrwt beam="1">  1        2 0.10036330e-01 0.31707489e+03</pdfrwt>
<pdfrwt beam="2">  1        2 0.20317859e+00 0.11659122e+03</pdfrwt>
<totfact> 0.20253274e+01</totfact>
</mgrwt>
<clustering>
<clus scale="   43.958">  3  5 -1 -1</clus>
<clus scale="  116.591">  2  4  1 -1</clus>
<clus scale="  103.377">  2  6  1 -1</clus>
<clus scale="  317.075">  1  3  2 -1</clus>
</clustering>
<rwgt>
  <wgt id="1">4.35834e-06</wgt>
  <wgt id="2">2.89825e-06</wgt>
  <wgt id="3">2.07044e-06</wgt>
  <wgt id="4">4.24833e-06</wgt>
  <wgt id="5">2.8251e-06</wgt>
  <wgt id="6">2.01819e-06</wgt>
  <wgt id="7">4.10028e-06</wgt>
  <wgt id="8">2.72665e-06</wgt>
  <wgt id="9">1.94785e-06</wgt>
  <wgt id="10">2.8251e-06</wgt>
  <wgt id="11">2.8251e-06</wgt>
  <wgt id="12">2.8251e-06</wgt>
  <wgt id="13">2.8251e-06</wgt>
  <wgt id="14">2.82859e-06</wgt>
  <wgt id="15">2.82219e-06</wgt>
  <wgt id="16">2.82502e-06</wgt>
  <wgt id="17">2.825e-06</wgt>
  <wgt id="18">2.81571e-06</wgt>
  <wgt id="19">2.83896e-06</wgt>
  <wgt id="20">2.82192e-06</wgt>
  <wgt id="21">2.82717e-06</wgt>
  <wgt id="22">2.82961e-06</wgt>
  <wgt id="23">2.81864e-06</wgt>
  <wgt id="24">2.84934e-06</wgt>
  <wgt id="25">2.81005e-06</wgt>
  <wgt id="26">2.82698e-06</wgt>
  <wgt id="27">2.82249e-06</wgt>
  <wgt id="28">2.84832e-06</wgt>
  <wgt id="29">2.81653e-06</wgt>
  <wgt id="30">2.8366e-06</wgt>
  <wgt id="31">2.80809e-06</wgt>
  <wgt id="32">2.82755e-06</wgt>
  <wgt id="33">2.8227e-06</wgt>
  <wgt id="34">2.79191e-06</wgt>
  <wgt id="35">2.88473e-06</wgt>
  <wgt id="36">2.83766e-06</wgt>
  <wgt id="37">2.81702e-06</wgt>
  <wgt id="38">2.81967e-06</wgt>
  <wgt id="39">2.82777e-06</wgt>
  <wgt id="40">2.82782e-06</wgt>
  <wgt id="41">2.8237e-06</wgt>
  <wgt id="42">2.83766e-06</wgt>
  <wgt id="43">2.80054e-06</wgt>
  <wgt id="44">2.82989e-06</wgt>
  <wgt id="45">2.82329e-06</wgt>
  <wgt id="46">2.81981e-06</wgt>
  <wgt id="47">2.82859e-06</wgt>
  <wgt id="48">2.81462e-06</wgt>
  <wgt id="49">2.83184e-06</wgt>
  <wgt id="50">2.81241e-06</wgt>
  <wgt id="51">2.82871e-06</wgt>
  <wgt id="52">2.832e-06</wgt>
  <wgt id="53">2.82326e-06</wgt>
</rwgt>
</event>
<event>
 10      0 +2.8251000e-06 1.02179400e+03 7.54677100e-03 9.39138200e-02
       -1 -1    0    0    0  501 +0.00000000000e+00 +0.00000000000e+00 +3.90685832570e+02  3.90685832570e+02  0.00000000000e+00 0.0000e+00 1.0000e+00
        2 -1    0    0  502    0 +0.00000000000e+00 +0.00000000000e+00 -8.35129010760e+02  8.35129010760e+02  0.00000000000e+00 0.0000e+00 -1.0000e+00
       24  2    1    2    0    0 +1.47187803203e+02 +1.95147100941e+02 -1.46087735385e+02  2.95888666955e+02  8.03855483588e+01 0.0000e+00 0.0000e+00
        4  1    3    3  503    0 -3.45322714490e+00 +4.18293878490e+01 -3.01143355744e+01  5.16574841879e+01  0.00000000000e+00 0.0000e+00 -1.0000e+00
       -3  1    3    3    0  503 +1.50641030348e+02 +1.53317713092e+02 -1.15973399810e+02  2.44231182767e+02  0.00000000000e+00 0.0000e+00 1.0000e+00
       24  2    1    2    0    0 +5.24522240743e+01 +1.73831485419e+01 -1.18094625679e+02  1.53310668690e+02  8.06499278137e+01 0.0000e+00 0.0000e+00
       14  1    6    6    0    0 +6.05031738530e+01 +8.63121995744e-01 -1.20438579393e+02  1.34784384971e+02  0.00000000000e+00 0.0000e+00 -1.0000e+00
      -13  1    6    6    0    0 -8.05094977870e+00 +1.65200265461e+01 +2.34395371384e+00  1.85262837190e+01  0.00000000000e+00 0.0000e+00 1.0000e+00
        3  1    1    2  502    0 -3.18239933817e+02 -1.55335907218e+02 -3.91374135444e+02  5.27806416636e+02  0.00000000000e+00 0.0000e+00 -1.0000e+00
       -4  1    1    2    0  501 +1.18599906539e+02 -5.71943422645e+01 +2.11113318317e+02  2.48809091050e+02  0.00000000000e+00 0.0000e+00 1.0000e+00
#  0.1300000e+05  0.1300000e+05  0.3182131e+03  0.1300000e+05
<mgrwt>
<rscale>  1 0.56810990e+03</rscale>
<asrwt>  1 0.31821307e+03</asrwt>
<pdfrwt beam="1">  1        2 0.12848139e+00 0.97642703e+02</pdfrwt>
<pdfrwt beam="2">  1       -1 0.60105513e-01 0.10217937e+04</pdfrwt>
<totfact> 0.13149323e+00</totfact>
</mgrwt>
<clustering>
<clus scale="   97.643">  2  4  1 -1</clus>
<clus scale="  132.747">  3  6 -1 -1</clus>
<clus scale="  318.213">  3  5 -1 -1</clus>
<clus scale=" 1021.794">  2  3  1 -1</clus>
</clustering>
<rwgt>
  <wgt id="1">3.7059e-06</wgt>
  <wgt id="2">3.09296e-06</wgt>
  <wgt id="3">2.65627e-06</wgt>
  <wgt id="4">3.38496e-06</wgt>
  <wgt id="5">2.8251e-06</wgt>
  <wgt id="6">2.42623e-06</wgt>
  <wgt id="7">3.10378e-06</wgt>
  <wgt id="8">2.59043e-06</wgt>
  <wgt id="9">2.22469e-06</wgt>
  <wgt id="10">3.43781e-06</wgt>
  <wgt id="11">2.8251e-06</wgt>
  <wgt id="12">2.40028e-06</wgt>
  <wgt id="13">2.8251e-06</wgt>
  <wgt id="14">2.82987e-06</wgt>
  <wgt id="15">2.82128e-06</wgt>
  <wgt id="16">2.83747e-06</wgt>
  <wgt id="17">2.81118e-06</wgt>
  <wgt id="18">2.81065e-06</wgt>
  <wgt id="19">2.84673e-06</wgt>
  <wgt id="20">2.84204e-06</wgt>
  <wgt id="21">2.81383e-06</wgt>
  <wgt id="22">2.83588e-06</wgt>
  <wgt id="23">2.81007e-06</wgt>
  <wgt id="24">2.88175e-06</wgt>
  <wgt id="25">2.79048e-06</wgt>
  <wgt id="26">2.82529e-06</wgt>
  <wgt id="27">2.8251e-06</wgt>
  <wgt id="28">2.85713e-06</wgt>
  <wgt id="29">2.81369e-06</wgt>
  <wgt id="30">2.82028e-06</wgt>
  <wgt id="31">2.83075e-06</wgt>
  <wgt id="32">2.84161e-06</wgt>
  <wgt id="33">2.80932e-06</wgt>
  <wgt id="34">2.81227e-06</wgt>
  <wgt id="35">2.84851e-06</wgt>
  <wgt id="36">2.83872e-06</wgt>
  <wgt id="37">2.81411e-06</wgt>
  <wgt id="38">2.85062e-06</wgt>
  <wgt id="39">2.81352e-06</wgt>
  <wgt id="40">2.81554e-06</wgt>
  <wgt id="41">2.83552e-06</wgt>
  <wgt id="42">2.84231e-06</wgt>
  <wgt id="43">2.78441e-06</wgt>
  <wgt id="44">2.8374e-06</wgt>
  <wgt id="45">2.82063e-06</wgt>
  <wgt id="46">2.82638e-06</wgt>
  <wgt id="47">2.82575e-06</wgt>
  <wgt id="48">2.81705e-06</wgt>
  <wgt id="49">2.83025e-06</wgt>
  <wgt id="50">2.82796e-06</wgt>
  <wgt id="51">2.82782e-06</wgt>
  <wgt id="52">2.82413e-06</wgt>
  <wgt id="53">2.82549e-06</wgt>
</rwgt>
</event>
<event>
 11      0 +2.8251000e-06 1.22956600e+02 7.54677100e-03 1.15190600e-01
        2 -1    0    0  503    0 +0.00000000000e+00 +0.00000000000e+00 +2.18214190110e+02  2.18214190110e+02  0.00000000000e+00 0.0000e+00 -1.0000e+00
        2 -1    0    0  501    0 +0.00000000000e+00 +0.00000000000e+00 -1.48365681220e+03  1.48365681220e+03  0.00000000000e+00 0.0000e+00 -1.0000e+00
       24  2    1    2    0    0 +2.37045081992e+00 +4.92338411586e+01 -1.07140956880e+03  1.07505111604e+03  7.33951485188e+01 0.0000e+00 0.0000e+00
       14  1    3    3    0    0 -1.90368818890e+01 +4.18836110400e+01 -3.18934405022e+02  3.22235619465e+02  0.00000000000e+00 0.0000e+00 -1.0000e+00
      -13  1    3    3    0    0 +2.14073327089e+01 +7.35023011867e+00 -7.52475163775e+02  7.52815496570e+02  0.00000000000e+00 0.0000e+00 1.0000e+00
       24  2    1    2    0    0 -8.79478336998e+00 +3.77806931279e+01 +2.87039809325e+01  9.51113008227e+01  8.19604296905e+01 0.0000e+00 0.0000e+00
       14  1    6    6    0    0 -2.93731461457e+01 +5.38036793453e+01 +8.01520305959e+00  6.18212027194e+01  0.00000000000e+00 0.0000e+00 -1.0000e+00
      -13  1    6    6    0    0 +2.05783627757e+01 -1.60229862174e+01 +2.06887778729e+01  3.32900981033e+01  0.00000000000e+00 0.0000e+00 1.0000e+00
       21  1    1    2  503  502 -5.67208044003e+01 -3.79056605542e+01 -2.56005015770e+01  7.28661405240e+01  0.00000000000e+00 0.0000e+00 -1.0000e+00
        1  1    1    2  501    0 -3.52658785589e+01 +1.23026194971e+02 +5.39653562076e+01  1.38893435806e+02  0.00000000000e+00 0.0000e+00 -1.0000e+00
        1  1    1    2  502    0 +9.84110155093e+01 -1.72135068703e+02 -2.51101888856e+02  3.19949009122e+02  0.00000000000e+00 0.0000e+00 -1.0000e+00
#  0.1300000e+05  0.1300000e+05  0.6822088e+02  0.1300000e+05  0.1300000e+05
<mgrwt>
<rscale>  2 0.12094965e+03</rscale>
<asrwt>  1 0.68220882e+02</asrwt>
<pdfrwt beam="1">  2        2        2 0.33571414e-01 0.28821570e-01 0.68220882e+02 0.12295657e+03</pdfrwt>
<pdfrwt beam="2">  1        2 0.22825489e+00 0.93719304e+02</pdfrwt>
<totfact> 0.61845766e-01</totfact>
</mgrwt>
<clustering>
<clus scale="   68.221">  1  5  2 -1</clus>
<clus scale="   87.749">  1  4  2 -1</clus>
<clus scale="   93.719">  2  3  1 -1</clus>
<clus scale="  161.315">  2  7  1 -1</clus>
<clus scale="  161.315">  1  3  2 -1</clus>
</clustering>
<rwgt>
  <wgt id="1">4.86763e-06</wgt>
  <wgt id="2">3.07772e-06</wgt>
  <wgt id="3">2.12624e-06</wgt>
  <wgt id="4">4.46809e-06</wgt>
  <wgt id="5">2.8251e-06</wgt>
  <wgt id="6">1.95171e-06</wgt>
  <wgt id="7">4.12238e-06</wgt>
  <wgt id="8">2.60651e-06</wgt>
  <wgt id="9">1.8007e-06</wgt>
  <wgt id="10">3.64509e-06</wgt>
  <wgt id="11">2.8251e-06</wgt>
  <wgt id="12">2.31085e-06</wgt>
  <wgt id="13">2.8251e-06</wgt>
  <wgt id="14">2.82848e-06</wgt>
  <wgt id="15">2.82223e-06</wgt>
  <wgt id="16">2.82142e-06</wgt>
  <wgt id="17">2.82904e-06</wgt>
  <wgt id="18">2.81314e-06</wgt>
  <wgt id="19">2.84273e-06</wgt>
  <wgt id="20">2.81833e-06</wgt>
  <wgt id="21">2.82962e-06</wgt>
  <wgt id="22">2.83159e-06</wgt>
  <wgt id="23">2.81583e-06</wgt>
  <wgt id="24">2.86088e-06</wgt>
  <wgt id="25">2.80299e-06</wgt>
  <wgt id="26">2.82489e-06</wgt>
  <wgt id="27">2.82535e-06</wgt>
  <wgt id="28">2.86011e-06</wgt>
  <wgt id="29">2.81233e-06</wgt>
  <wgt id="30">2.83242e-06</wgt>
  <wgt id="31">2.81546e-06</wgt>
  <wgt id="32">2.82863e-06</wgt>
  <wgt id="33">2.82171e-06</wgt>
  <wgt id="34">2.79063e-06</wgt>
  <wgt id="35">2.88799e-06</wgt>
  <wgt id="36">2.83095e-06</wgt>
  <wgt id="37">2.82216e-06</wgt>
  <wgt id="38">2.81824e-06</wgt>
  <wgt id="39">2.82864e-06</wgt>
  <wgt id="40">2.82774e-06</wgt>
  <wgt id="41">2.82282e-06</wgt>
  <wgt id="42">2.8448e-06</wgt>
  <wgt id="43">2.78876e-06</wgt>
  <wgt id="44">2.83252e-06</wgt>
  <wgt id="45">2.82232e-06</wgt>
  <wgt id="46">2.82199e-06</wgt>
  <wgt id="47">2.82733e-06</wgt>
  <wgt id="48">2.80542e-06</wgt>
  <wgt id="49">2.83681e-06</wgt>
  <wgt id="50">2.81562e-06</wgt>
  <wgt id="51">2.83364e-06</wgt>
  <wgt id="52">2.83066e-06</wgt>
  <wgt id="53">2.8236e-06</wgt>
</rwgt>
</event>
<event>
 10      0 +2.8251000e-06 1.07404900e+02 7.54677100e-03 1.17874500e-01
        2 -1    0    0  502    0 +0.00000000000e+00 +0.00000000000e+00 +4.69030285380e+02  4.69030285380e+02  0.00000000000e+00 0.0000e+00 -1.0000e+00
        2 -1    0    0  501    0 +0.00000000000e+00 +0.00000000000e+00 -2.87092316790e+02  2.87092316790e+02  0.00000000000e+00 0.0000e+00 -1.0000e+00
       24  2    1    2    0    0 -1.40332814419e+01 +8.10710860989e+01 +3.18021316868e+02  3.42767747728e+02  9.78913525816e+01 0.0000e+00 0.0000e+00
        2  1    3    3  503    0 -3.28757239422e+01 +8.72842596296e+01 +3.05227356376e+02  3.19159982273e+02  0.00000000000e+00 0.0000e+00 -1.0000e+00
       -1  1    3    3    0  503 +1.88424425003e+01 -6.21317353073e+00 +1.27939604919e+01  2.36077654548e+01  0.00000000000e+00 0.0000e+00 1.0000e+00
       24  2    1    2    0    0 -1.86135880821e+01 -4.18010424936e+01 -1.36784126958e+02  1.64628988285e+02  7.93663252333e+01 0.0000e+00 0.0000e+00
        2  1    6    6  504    0 -3.07496497498e+01 -4.38064930880e+01 -1.41632148265e+02  1.51407447698e+02  0.00000000000e+00 0.0000e+00 -1.0000e+00
       -1  1    6    6    0  504 +1.21360616677e+01 +2.00545059437e+00 +4.84802130650e+00  1.32215405864e+01  0.00000000000e+00 0.0000e+00 1.0000e+00
        1  1    1    2  501    0 +2.51260486120e+01 -1.19825949512e+02 -7.02167936418e+01  1.41138140149e+02  0.00000000000e+00 0.0000e+00 -1.0000e+00
        1  1    1    2  502    0 +7.52082091209e+00 +8.05559059070e+01 +7.09175723219e+01  1.07587726009e+02  0.00000000000e+00 0.0000e+00 -1.0000e+00
#  0.1300000e+05  0.1300000e+05  0.1300000e+05  0.1300000e+05
<mgrwt>
<rscale>  2 0.10360289e+03</rscale>
<asrwt>0</asrwt>
<pdfrwt beam="1">  1        2 0.72158505e-01 0.10740485e+03</pdfrwt>
<pdfrwt beam="2">  1        2 0.44168049e-01 0.92985622e+02</pdfrwt>
<totfact> 0.16510455e+01</totfact>
</mgrwt>
<clustering>
<clus scale="   92.986">  2  4  1 -1</clus>
<clus scale="   89.689">  2  6  1 -1</clus>
<clus scale="   71.194">  2  5  1 -1</clus>
<clus scale="  107.405">  1  3  2 -1</clus>
</clustering>
<rwgt>
  <wgt id="1">4.48681e-06</wgt>
  <wgt id="2">2.80092e-06</wgt>
  <wgt id="3">1.91936e-06</wgt>
  <wgt id="4">4.52555e-06</wgt>
  <wgt id="5">2.8251e-06</wgt>
  <wgt id="6">1.93593e-06</wgt>
  <wgt id="7">4.47463e-06</wgt>
  <wgt id="8">2.79331e-06</wgt>
  <wgt id="9">1.91415e-06</wgt>
  <wgt id="10">2.8251e-06</wgt>
  <wgt id="11">2.8251e-06</wgt>
  <wgt id="12">2.8251e-06</wgt>
  <wgt id="13">2.8251e-06</wgt>
  <wgt id="14">2.82824e-06</wgt>
  <wgt id="15">2.82246e-06</wgt>
  <wgt id="16">2.83112e-06</wgt>
  <wgt id="17">2.8182e-06</wgt>
  <wgt id="18">2.81406e-06</wgt>
  <wgt id="19">2.8414e-06</wgt>
  <wgt id="20">2.81289e-06</wgt>
  <wgt id="21">2.83329e-06</wgt>
  <wgt id="22">2.83022e-06</wgt>
  <wgt id="23">2.81777e-06</wgt>
  <wgt id="24">2.85489e-06</wgt>
  <wgt id="25">2.80663e-06</wgt>
  <wgt id="26">2.823e-06</wgt>
  <wgt id="27">2.82799e-06</wgt>
  <wgt id="28">2.85483e-06</wgt>
  <wgt id="29">2.81418e-06</wgt>
  <wgt id="30">2.83028e-06</wgt>
  <wgt id="31">2.81814e-06</wgt>
  <wgt id="32">2.8313e-06</wgt>
  <wgt id="33">2.81917e-06</wgt>
  <wgt id="34">2.79661e-06</wgt>
  <wgt id="35">2.87679e-06</wgt>
  <wgt id="36">2.8281e-06</wgt>
  <wgt id="37">2.82535e-06</wgt>
  <wgt id="38">2.81914e-06</wgt>
  <wgt id="39">2.82785e-06</wgt>
  <wgt id="40">2.82558e-06</wgt>
  <wgt id="41">2.8251e-06</wgt>
  <wgt id="42">2.84322e-06</wgt>
  <wgt id="43">2.78814e-06</wgt>
  <wgt id="44">2.83721e-06</wgt>
  <wgt id="45">2.82022e-06</wgt>
  <wgt id="46">2.82515e-06</wgt>
  <wgt id="47">2.82575e-06</wgt>
  <wgt id="48">2.78446e-06</wgt>
  <wgt id="49">2.84415e-06</wgt>
  <wgt id="50">2.81255e-06</wgt>
  <wgt id="51">2.83756e-06</wgt>
  <wgt id="52">2.82069e-06</wgt>
  <wgt id="53">2.82593e-06</wgt>
</rwgt>
</event>
<event>
 10      0 +2.8251000e-06 3.55414200e+02 7.54677100e-03 1.04252200e-01
        2 -1    0    0  502    0 +0.00000000000e+00 +0.00000000000e+00 +1.00423913160e+03  1.00423913160e+03  0.00000000000e+00 0.0000e+00 -1.0000e+00
       -1 -1    0    0    0  501 +0.00000000000e+00 +0.00000000000e+00 -5.09813410990e+01  5.09813410990e+01  0.00000000000e+00 0.0000e+00 1.0000e+00
       24  2    1    2    0    0 +6.01379571405e+00 +2.82004013798e+01 +2.96715843613e+02  3.08946879972e+02  8.10953415233e+01 0.0000e+00 0.0000e+00
        4  1    3    3  503    0 -2.72577181520e+01 +1.85522276846e+01 +5.05332681320e+01  6.03388725368e+01  0.00000000000e+00 0.0000e+00 -1.0000e+00
       -3  1    3    3    0  503 +3.32715138660e+01 +9.64817369520e+00 +2.46182575481e+02  2.48608007435e+02  0.00000000000e+00 0.0000e+00 1.0000e+00
       24  2    1    2    0    0 +2.09301551738e+01 +9.36717262039e-01 +9.46043367726e+01  1.25990376283e+02  8.05272968936e+01 0.0000e+00 0.0000e+00
        4  1    6    6  504    0 +3.64809062773e+01 -1.25465650567e+01 +9.78256723378e+01  1.05157667271e+02  0.00000000000e+00 0.0000e+00 -1.0000e+00
       -3  1    6    6    0  504 -1.55507511035e+01 +1.34832823187e+01 -3.22133556516e+00  2.08327090123e+01  0.00000000000e+00 0.0000e+00 1.0000e+00
        1  1    1    2  502    0 -5.66425493064e+01 -8.31706450392e+01 +5.47879266855e+02  5.57043468356e+02  0.00000000000e+00 0.0000e+00 -1.0000e+00
       -2  1    1    2    0  501 +2.96985984186e+01 +5.40335263973e+01 +1.40583432603e+01  6.32397480876e+01  0.00000000000e+00 0.0000e+00 1.0000e+00
#  0.1300000e+05  0.1300000e+05  0.9947634e+02  0.1300000e+05
<mgrwt>
<rscale>  2 0.24713845e+03</rscale>
<asrwt>0</asrwt>
<pdfrwt beam="1">  1        2 0.15449833e+00 0.35541419e+03</pdfrwt>
<pdfrwt beam="2">  1       -1 0.78432832e-02 0.83091574e+02</pdfrwt>
<totfact> 0.27596212e+01</totfact>
</mgrwt>
<clustering>
<clus scale="   61.747">  3  6 -1 -1</clus>
<clus scale="   83.092">  2  4  1 -1</clus>
<clus scale="   99.476">  3  5 -1 -1</clus>
<clus scale="  355.414">  1  3  2 -1</clus>
</clustering>
<rwgt>
  <wgt id="1">3.90382e-06</wgt>
  <wgt id="2">2.59615e-06</wgt>
  <wgt id="3">1.8547e-06</wgt>
  <wgt id="4">4.24809e-06</wgt>
  <wgt id="5">2.8251e-06</wgt>
  <wgt id="6">2.01826e-06</wgt>
  <wgt id="7">4.40836e-06</wgt>
  <wgt id="8">2.93168e-06</wgt>
  <wgt id="9">2.09441e-06</wgt>
  <wgt id="10">2.8251e-06</wgt>
  <wgt id="11">2.8251e-06</wgt>
  <wgt id="12">2.8251e-06</wgt>
  <wgt id="13">2.8251e-06</wgt>
  <wgt id="14">2.82825e-06</wgt>
  <wgt id="15">2.82247e-06</wgt>
  <wgt id="16">2.83015e-06</wgt>
  <wgt id="17">2.81924e-06</wgt>
  <wgt id="18">2.8151e-06</wgt>
  <wgt id="19">2.83986e-06</wgt>
  <wgt id="20">2.82457e-06</wgt>
  <wgt id="21">2.82539e-06</wgt>
  <wgt id="22">2.82959e-06</wgt>
  <wgt id="23">2.81871e-06</wgt>
  <wgt id="24">2.84886e-06</wgt>
  <wgt id="25">2.8104e-06</wgt>
  <wgt id="26">2.82829e-06</wgt>
  <wgt id="27">2.82076e-06</wgt>
  <wgt id="28">2.84482e-06</wgt>
  <wgt id="29">2.81791e-06</wgt>
  <wgt id="30">2.83868e-06</wgt>
  <wgt id="31">2.80297e-06</wgt>
  <wgt id="32">2.82984e-06</wgt>
  <wgt id="33">2.82052e-06</wgt>
  <wgt id="34">2.78754e-06</wgt>
  <wgt id="35">2.89256e-06</wgt>
  <wgt id="36">2.8544e-06</wgt>
  <wgt id="37">2.80804e-06</wgt>
  <wgt id="38">2.8184e-06</wgt>
  <wgt id="39">2.82823e-06</wgt>
  <wgt id="40">2.82721e-06</wgt>
  <wgt id="41">2.82574e-06</wgt>
  <wgt id="42">2.83806e-06</wgt>
  <wgt id="43">2.79855e-06</wgt>
  <wgt id="44">2.83086e-06</wgt>
  <wgt id="45">2.82296e-06</wgt>
  <wgt id="46">2.8168e-06</wgt>
  <wgt id="47">2.83069e-06</wgt>
  <wgt id="48">2.82309e-06</wgt>
  <wgt id="49">2.82705e-06</wgt>
  <wgt id="50">2.81028e-06</wgt>
  <wgt id="51">2.82627e-06</wgt>
  <wgt id="52">2.8366e-06</wgt>
  <wgt id="53">2.82197e-06</wgt>
</rwgt>
</event>
<event>
 10      0 +2.8251000e-06 1.63043400e+02 7.54677100e-03 1.13005400e-01
        2 -1    0    0  502    0 +0.00000000000e+00 +0.00000000000e+00 +1.24453081090e+03  1.24453081090e+03  0.00000000000e+00 0.0000e+00 -1.0000e+00
        2 -1    0    0  501    0 +0.00000000000e+00 +0.00000000000e+00 -4.08225643850e+02  4.08225643850e+02  0.00000000000e+00 0.0000e+00 -1.0000e+00
       24  2    1    2    0    0 +1.19905187184e+01 +1.75643867710e+01 +3.24652556323e+02  3.34881706013e+02  7.93359595191e+01 0.0000e+00 0.0000e+00
        4  1    3    3  503    0 +1.34746013840e+01 -2.12562919977e+01 +3.78090528172e+01  4.54193714937e+01  0.00000000000e+00 0.0000e+00 -1.0000e+00
       -3  1    3    3    0  503 -1.48408266558e+00 +3.88206787687e+01 +2.86843503506e+02  2.89462334519e+02  0.00000000000e+00 0.0000e+00 1.0000e+00
       24  2    1    2    0    0 +6.88678249065e+01 +8.71392452441e+01 -1.72470657184e+02  2.20381525611e+02  8.05348612209e+01 0.0000e+00 0.0000e+00
       12  1    6    6    0    0 -3.10006371282e+00 -1.85916389239e+00 -5.93433319791e+01  5.94533256915e+01  0.00000000000e+00 0.0000e+00 -1.0000e+00
      -11  1    6    6    0    0 +7.19678886194e+01 +8.89984091365e+01 -1.13127325205e+02  1.60928199919e+02  0.00000000000e+00 0.0000e+00 1.0000e+00
        1  1    1    2  501    0 +8.82557148576e+01 +3.82627020780e+01 +8.27897298227e+02  8.33466881157e+02  0.00000000000e+00 0.0000e+00 -1.0000e+00
        1  1    1    2  502    0 -1.69114058483e+02 -1.42966334093e+02 -1.43774030316e+02  2.64026341969e+02  0.00000000000e+00 0.0000e+00 -1.0000e+00
#  0.1300000e+05  0.1300000e+05  0.1300000e+05  0.1300000e+05
<mgrwt>
<rscale>  2 0.13788478e+03</rscale>
<asrwt>0</asrwt>
<pdfrwt beam="1">  1        2 0.19146628e+00 0.83398020e+02</pdfrwt>
<pdfrwt beam="2">  1        2 0.62803945e-01 0.16304339e+03</pdfrwt>
<totfact> 0.32207658e+00</totfact>
</mgrwt>
<clustering>
<clus scale="   83.398">  1  3  2 -1</clus>
<clus scale="  112.893">  1  5  2 -1</clus>
<clus scale="  141.831">  1  6  2 -1</clus>
<clus scale="  163.043">  1  3  2 -1</clus>
</clustering>
<rwgt>
  <wgt id="1">4.92769e-06</wgt>
  <wgt id="2">3.14685e-06</wgt>
  <wgt id="3">2.18879e-06</wgt>
  <wgt id="4">4.42385e-06</wgt>
  <wgt id="5">2.8251e-06</wgt>
  <wgt id="6">1.96499e-06</wgt>
  <wgt id="7">4.004e-06</wgt>
  <wgt id="8">2.55698e-06</wgt>
  <wgt id="9">1.7785e-06</wgt>
  <wgt id="10">2.8251e-06</wgt>
  <wgt id="11">2.8251e-06</wgt>
  <wgt id="12">2.8251e-06</wgt>
  <wgt id="13">2.8251e-06</wgt>
  <wgt id="14">2.82808e-06</wgt>
  <wgt id="15">2.82264e-06</wgt>
  <wgt id="16">2.819e-06</wgt>
  <wgt id="17">2.8318e-06</wgt>
  <wgt id="18">2.81242e-06</wgt>
  <wgt id="19">2.84393e-06</wgt>
  <wgt id="20">2.81399e-06</wgt>
  <wgt id="21">2.83261e-06</wgt>
  <wgt id="22">2.83195e-06</wgt>
  <wgt id="23">2.81543e-06</wgt>
  <wgt id="24">2.86325e-06</wgt>
  <wgt id="25">2.80158e-06</wgt>
  <wgt id="26">2.82422e-06</wgt>
  <wgt id="27">2.82638e-06</wgt>
  <wgt id="28">2.86955e-06</wgt>
  <wgt id="29">2.80904e-06</wgt>
  <wgt id="30">2.83053e-06</wgt>
  <wgt id="31">2.81816e-06</wgt>
  <wgt id="32">2.8294e-06</wgt>
  <wgt id="33">2.82104e-06</wgt>
  <wgt id="34">2.78951e-06</wgt>
  <wgt id="35">2.89058e-06</wgt>
  <wgt id="36">2.8413e-06</wgt>
  <wgt id="37">2.81679e-06</wgt>
  <wgt id="38">2.81524e-06</wgt>
  <wgt id="39">2.83003e-06</wgt>
  <wgt id="40">2.82626e-06</wgt>
  <wgt id="41">2.82436e-06</wgt>
  <wgt id="42">2.84737e-06</wgt>
  <wgt id="43">2.78617e-06</wgt>
  <wgt id="44">2.83426e-06</wgt>
  <wgt id="45">2.82157e-06</wgt>
  <wgt id="46">2.82464e-06</wgt>
  <wgt id="47">2.82574e-06</wgt>
  <wgt id="48">2.80525e-06</wgt>
  <wgt id="49">2.83676e-06</wgt>
  <wgt id="50">2.81502e-06</wgt>
  <wgt id="51">2.83817e-06</wgt>
  <wgt id="52">2.83211e-06</wgt>
  <wgt id="53">2.82323e-06</wgt>
</rwgt>
</event>
<event>
 12      0 +2.8251000e-06 2.70145300e+02 7.54677100e-03 1.04234400e-01
        2 -1    0    0  504    0 +0.00000000000e+00 +0.00000000000e+00 +7.88543152450e+02  7.88543152450e+02  0.00000000000e+00 0.0000e+00 -1.0000e+00
        2 -1    0    0  503    0 +0.00000000000e+00 +0.00000000000e+00 -8.34673786980e+02  8.34673786980e+02  0.00000000000e+00 0.0000e+00 -1.0000e+00
       24  2    1    2    0    0 +2.87041665888e+01 -7.95544127495e+01 -9.42645843629e+01  1.49997498434e+02  8.03778819313e+01 0.0000e+00 0.0000e+00
       14  1    3    3    0    0 -1.98364648259e+01 -5.52989832848e+01 -3.02536557985e+01  6.60813633205e+01  0.00000000000e+00 0.0000e+00 -1.0000e+00
      -13  1    3    3    0    0 +4.85406314146e+01 -2.42554294647e+01 -6.40109285644e+01  8.39161351132e+01  0.00000000000e+00 0.0000e+00 1.0000e+00
       24  2    1    2    0    0 -1.38045766826e+02 +1.02473185123e+02 +2.30051074947e+02  2.97799529123e+02  7.87634118971e+01 0.0000e+00 0.0000e+00
        4  1    6    6  505    0 -5.63660542847e+01 +4.77901980636e+00 +4.10127086572e+01  6.98714060066e+01  0.00000000000e+00 0.0000e+00 -1.0000e+00
       -3  1    6    6    0  505 -8.16797125408e+01 +9.76941653168e+01 +1.89038366290e+02  2.27928123116e+02  0.00000000000e+00 0.0000e+00 1.0000e+00
       21  1    1    2  503  502 -7.45273584946e+00 +1.05271230755e+02 +5.52367865661e+01  1.19116236872e+02  0.00000000000e+00 0.0000e+00 -1.0000e+00
       21  1    1    2  504  501 +2.25695739946e+01 -6.61443329279e+01 +8.99174931446e+00  7.04649558611e+01  0.00000000000e+00 0.0000e+00 -1.0000e+00
        1  1    1    2  501    0 +2.70920111043e+02 -2.61713503147e+02 -4.94389193660e+02  6.21540295641e+02  0.00000000000e+00 0.0000e+00 -1.0000e+00
        1  1    1    2  502    0 -1.76695348952e+02 +1.99667832945e+02 +2.48243532666e+02  3.64298423500e+02  0.00000000000e+00 0.0000e+00 -1.0000e+00
#  0.1300000e+05  0.1300000e+05  0.7722883e+02  0.6983212e+02  0.1300000e+05  0.1300000e+05
<mgrwt>
<rscale>  2 0.24745717e+03</rscale>
<asrwt>  2 0.69832116e+02 0.77228831e+02</asrwt>
<pdfrwt beam="1">  2        2        2 0.12131433e+00 0.11074489e+00 0.69832116e+02 0.27014531e+03</pdfrwt>
<pdfrwt beam="2">  1        2 0.12841135e+00 0.11864195e+03</pdfrwt>
<totfact> 0.34693956e-02</totfact>
</mgrwt>
<clustering>
<clus scale="   69.832">  1  6  2 -1</clus>
<clus scale="   77.229">  5  8 -1 -1</clus>
<clus scale="  118.642">  2  3  1 -1</clus>
<clus scale="  168.511">  1  4  2 -1</clus>
<clus scale="  415.772">  2  7  1 -1</clus>
<clus scale="  433.079">  1  3  2 -1</clus>
</clustering>
<rwgt>
  <wgt id="1">4.69936e-06</wgt>
  <wgt id="2">3.12546e-06</wgt>
  <wgt id="3">2.23296e-06</wgt>
  <wgt id="4">4.24775e-06</wgt>
  <wgt id="5">2.8251e-06</wgt>
  <wgt id="6">2.01837e-06</wgt>
  <wgt id="7">3.86718e-06</wgt>
  <wgt id="8">2.57199e-06</wgt>
  <wgt id="9">1.83754e-06</wgt>
  <wgt id="10">4.66973e-06</wgt>
  <wgt id="11">2.8251e-06</wgt>
  <wgt id="12">1.89871e-06</wgt>
  <wgt id="13">2.8251e-06</wgt>
  <wgt id="14">2.82787e-06</wgt>
  <wgt id="15">2.8228e-06</wgt>
  <wgt id="16">2.81672e-06</wgt>
  <wgt id="17">2.83433e-06</wgt>
  <wgt id="18">2.81199e-06</wgt>
  <wgt id="19">2.84448e-06</wgt>
  <wgt id="20">2.81122e-06</wgt>
  <wgt id="21">2.83442e-06</wgt>
  <wgt id="22">2.83202e-06</wgt>
  <wgt id="23">2.81527e-06</wgt>
  <wgt id="24">2.86405e-06</wgt>
  <wgt id="25">2.80104e-06</wgt>
  <wgt id="26">2.824e-06</wgt>
  <wgt id="27">2.82658e-06</wgt>
  <wgt id="28">2.87554e-06</wgt>
  <wgt id="29">2.80689e-06</wgt>
  <wgt id="30">2.83049e-06</wgt>
  <wgt id="31">2.81826e-06</wgt>
  <wgt id="32">2.82944e-06</wgt>
  <wgt id="33">2.821e-06</wgt>
  <wgt id="34">2.78894e-06</wgt>
  <wgt id="35">2.89197e-06</wgt>
  <wgt id="36">2.85387e-06</wgt>
  <wgt id="37">2.80933e-06</wgt>
  <wgt id="38">2.81178e-06</wgt>
  <wgt id="39">2.83159e-06</wgt>
  <wgt id="40">2.82511e-06</wgt>
  <wgt id="41">2.8256e-06</wgt>
  <wgt id="42">2.84898e-06</wgt>
  <wgt id="43">2.78486e-06</wgt>
  <wgt id="44">2.83494e-06</wgt>
  <wgt id="45">2.82133e-06</wgt>
  <wgt id="46">2.82577e-06</wgt>
  <wgt id="47">2.82498e-06</wgt>
  <wgt id="48">2.80935e-06</wgt>
  <wgt id="49">2.83469e-06</wgt>
  <wgt id="50">2.81424e-06</wgt>
  <wgt id="51">2.83987e-06</wgt>
  <wgt id="52">2.83524e-06</wgt>
  <wgt id="53">2.82232e-06</wgt>
</rwgt>
</event>
<event>
 10      0 +2.8251000e-06 5.16237400e+02 7.54677100e-03 9.84275300e-02
       -1 -1    0    0    0  501 +0.00000000000e+00 +0.00000000000e+00 +1.43514430800e+03  1.43514430800e+03  0.00000000000e+00 0.0000e+00 1.0000e+00
        2 -1    0    0  502    0 +0.00000000000e+00 +0.00000000000e+00 -1.90674869610e+02  1.90674869610e+02  0.00000000000e+00 0.0000e+00 -1.0000e+00
       24  2    1    2    0    0 -8.30011316143e+01 -1.13703983135e+02 -9.65773004318e+01  1.88883624775e+02  8.08211922658e+01 0.0000e+00 0.0000e+00
       14  1    3    3    0    0 +2.13753682125e+00 -1.52248803326e+01 -4.72224531037e+01  4.96621195876e+01  0.00000000000e+00 0.0000e+00 -1.0000e+00
      -13  1    3    3    0    0 -8.51386684355e+01 -9.84791028024e+01 -4.93548473281e+01  1.39221505187e+02  0.00000000000e+00 0.0000e+00 1.0000e+00
       24  2    1    2    0    0 +2.14383792337e+01 +2.04422679907e+00 +4.74913695793e+02  4.81964304177e+02  7.92640465861e+01 0.0000e+00 0.0000e+00
       12  1    6    6    0    0 -1.69890553876e+00 +3.53725400481e+01 +3.14984119411e+02  3.16968607832e+02  0.00000000000e+00 0.0000e+00 -1.0000e+00
      -11  1    6    6    0    0 +2.31372847725e+01 -3.33283132490e+01 +1.59929576382e+02  1.64995696345e+02  0.00000000000e+00 0.0000e+00 1.0000e+00
        1  1    1    2  502    0 -9.93815131804e+01 +1.25454897635e+02 +1.44989080598e+02  2.15957055905e+02  0.00000000000e+00 0.0000e+00 -1.0000e+00
       -2  1    1    2    0  501 +1.60944265561e+02 -1.37951412994e+01 +7.21143962431e+02  7.39014192753e+02  0.00000000000e+00 0.0000e+00 1.0000e+00
#  0.1300000e+05  0.1300000e+05  0.1300000e+05  0.1596368e+03
<mgrwt>
<rscale>  1 0.38646831e+03</rscale>
<asrwt>  1 0.15963684e+03</asrwt>
<pdfrwt beam="1">  1        2 0.29334595e-01 0.51623736e+03</pdfrwt>
<pdfrwt beam="2">  1       -1 0.22079143e+00 0.16214638e+03</pdfrwt>
<totfact> 0.28316687e-01</totfact>
</mgrwt>
<clustering>
<clus scale="  160.134">  4  5 -1 -1</clus>
<clus scale="  159.637">  4  6 -1 -1</clus>
<clus scale="  162.146">  1  3  2 -1</clus>
<clus scale="  516.237">  2  3  1 -1</clus>
</clustering>
<rwgt>
  <wgt id="1">4.05126e-06</wgt>
  <wgt id="2">3.34764e-06</wgt>
  <wgt id="3">2.85497e-06</wgt>
  <wgt id="4">3.41889e-06</wgt>
  <wgt id="5">2.8251e-06</wgt>
  <wgt id="6">2.40933e-06</wgt>
  <wgt id="7">2.94647e-06</wgt>
  <wgt id="8">2.43473e-06</wgt>
  <wgt id="9">2.07641e-06</wgt>
  <wgt id="10">3.51591e-06</wgt>
  <wgt id="11">2.8251e-06</wgt>
  <wgt id="12">2.36448e-06</wgt>
  <wgt id="13">2.8251e-06</wgt>
  <wgt id="14">2.83093e-06</wgt>
  <wgt id="15">2.82034e-06</wgt>
  <wgt id="16">2.85484e-06</wgt>
  <wgt id="17">2.79282e-06</wgt>
  <wgt id="18">2.81034e-06</wgt>
  <wgt id="19">2.84818e-06</wgt>
  <wgt id="20">2.83005e-06</wgt>
  <wgt id="21">2.82269e-06</wgt>
  <wgt id="22">2.83571e-06</wgt>
  <wgt id="23">2.81043e-06</wgt>
  <wgt id="24">2.88556e-06</wgt>
  <wgt id="25">2.78953e-06</wgt>
  <wgt id="26">2.82156e-06</wgt>
  <wgt id="27">2.83154e-06</wgt>
  <wgt id="28">2.83469e-06</wgt>
  <wgt id="29">2.82208e-06</wgt>
  <wgt id="30">2.80231e-06</wgt>
  <wgt id="31">2.85647e-06</wgt>
  <wgt id="32">2.83442e-06</wgt>
  <wgt id="33">2.81784e-06</wgt>
  <wgt id="34">2.85923e-06</wgt>
  <wgt id="35">2.76786e-06</wgt>
  <wgt id="36">2.83433e-06</wgt>
  <wgt id="37">2.81634e-06</wgt>
  <wgt id="38">2.96273e-06</wgt>
  <wgt id="39">2.76287e-06</wgt>
  <wgt id="40">2.82064e-06</wgt>
  <wgt id="41">2.83218e-06</wgt>
  <wgt id="42">2.81963e-06</wgt>
  <wgt id="43">2.81596e-06</wgt>
  <wgt id="44">2.949e-06</wgt>
  <wgt id="45">2.77332e-06</wgt>
  <wgt id="46">2.91734e-06</wgt>
  <wgt id="47">2.76369e-06</wgt>
  <wgt id="48">2.86916e-06</wgt>
  <wgt id="49">2.78881e-06</wgt>
  <wgt id="50">2.81405e-06</wgt>
  <wgt id="51">2.84812e-06</wgt>
  <wgt id="52">2.77864e-06</wgt>
  <wgt id="53">2.83816e-06</wgt>
</rwgt>
</event>
<event>
 11      0 +2.8251000e-06 3.83476500e+02 7.54677100e-03 1.01726400e-01
        2 -1    0    0  502    0 +0.00000000000e+00 +0.00000000000e+00 +1.84660093960e+03  1.84660093960e+03  0.00000000000e+00 0.0000e+00 -1.0000e+00
       21 -1    0    0  501  503 +0.00000000000e+00 +0.00000000000e+00 -7.47650965030e+02  7.47650965030e+02  0.00000000000e+00 0.0000e+00 -1.0000e+00
       24  2    1    2    0    0 +4.33742145650e+01 -1.05978325514e+02 +1.02597347583e+02  1.73397967495e+02  8.01742566684e+01 0.0000e+00 0.0000e+00
        2  1    3    3  504    0 +1.75007266688e+01 -8.18095983107e+01 +1.09013553714e+02  1.37415576639e+02  0.00000000000e+00 0.0000e+00 -1.0000e+00
       -1  1    3    3    0  504 +2.58734878962e+01 -2.41687272033e+01 -6.41620613140e+00  3.59823908553e+01  0.00000000000e+00 0.0000e+00 1.0000e+00
       24  2    1    2    0    0 -1.75321131512e+01 +4.10070936844e+02 +3.42279510494e+02  5.41161232284e+02  8.50568503291e+01 0.0000e+00 0.0000e+00
        4  1    6    6  505    0 -1.40989866978e+01 +3.95829701757e+02 +3.01341897311e+02  4.97681497842e+02  0.00000000000e+00 0.0000e+00 -1.0000e+00
       -3  1    6    6    0  505 -3.43312645339e+00 +1.42412350862e+01 +4.09376131834e+01  4.34797344424e+01  0.00000000000e+00 0.0000e+00 1.0000e+00
        1  1    1    2  501    0 -5.12854995749e+02 -1.28688197943e+02 +3.41509495960e+02  6.29451852635e+02  0.00000000000e+00 0.0000e+00 -1.0000e+00
        3  1    1    2  502    0 +2.49223206994e+02 -2.68327556351e+02 +6.97816680493e+02  7.88073603146e+02  0.00000000000e+00 0.0000e+00 -1.0000e+00
       -4  1    1    2    0  503 +2.37789687342e+02 +9.29231429645e+01 -3.85253059960e+02  4.62167249070e+02  0.00000000000e+00 0.0000e+00 1.0000e+00
#  0.1300000e+05  0.1300000e+05  0.1300000e+05  0.1300000e+05  0.2553498e+03
<mgrwt>
<rscale>  2 0.29810417e+03</rscale>
<asrwt>  1 0.25534976e+03</asrwt>
<pdfrwt beam="1">  2       21        4 0.11502323e+00 0.43791609e-01 0.25534976e+03 0.38347647e+03</pdfrwt>
<pdfrwt beam="2">  1        2 0.28409245e+00 0.14004127e+03</pdfrwt>
<totfact> 0.74726410e-02</totfact>
</mgrwt>
<clustering>
<clus scale="  140.041">  1  3  2 -1</clus>
<clus scale="  255.350">  2  7  1 -1</clus>
<clus scale="  407.563">  1  5  2 -1</clus>
<clus scale="  374.949">  1  6  2 -1</clus>
<clus scale="  383.476">  2  3  1 -1</clus>
</clustering>
<rwgt>
  <wgt id="1">5.355e-06</wgt>
  <wgt id="2">3.6023e-06</wgt>
  <wgt id="3">2.59354e-06</wgt>
  <wgt id="4">4.19965e-06</wgt>
  <wgt id="5">2.8251e-06</wgt>
  <wgt id="6">2.03398e-06</wgt>
  <wgt id="7">3.82587e-06</wgt>
  <wgt id="8">2.57366e-06</wgt>
  <wgt id="9">1.85295e-06</wgt>
  <wgt id="10">3.46079e-06</wgt>
  <wgt id="11">2.8251e-06</wgt>
  <wgt id="12">2.38949e-06</wgt>
  <wgt id="13">2.8251e-06</wgt>
  <wgt id="14">2.83256e-06</wgt>
  <wgt id="15">2.81876e-06</wgt>
  <wgt id="16">2.81169e-06</wgt>
  <wgt id="17">2.84006e-06</wgt>
  <wgt id="18">2.81687e-06</wgt>
  <wgt id="19">2.83724e-06</wgt>
  <wgt id="20">2.82405e-06</wgt>
  <wgt id="21">2.82578e-06</wgt>
  <wgt id="22">2.82854e-06</wgt>
  <wgt id="23">2.82018e-06</wgt>
  <wgt id="24">2.84294e-06</wgt>
  <wgt id="25">2.81395e-06</wgt>
  <wgt id="26">2.82589e-06</wgt>
  <wgt id="27">2.82404e-06</wgt>
  <wgt id="28">2.84991e-06</wgt>
  <wgt id="29">2.81587e-06</wgt>
  <wgt id="30">2.79857e-06</wgt>
  <wgt id="31">2.85842e-06</wgt>
  <wgt id="32">2.8277e-06</wgt>
  <wgt id="33">2.82247e-06</wgt>
  <wgt id="34">2.83785e-06</wgt>
  <wgt id="35">2.80606e-06</wgt>
  <wgt id="36">2.80383e-06</wgt>
  <wgt id="37">2.83963e-06</wgt>
  <wgt id="38">2.80411e-06</wgt>
  <wgt id="39">2.83582e-06</wgt>
  <wgt id="40">2.8216e-06</wgt>
  <wgt id="41">2.82851e-06</wgt>
  <wgt id="42">2.82647e-06</wgt>
  <wgt id="43">2.82517e-06</wgt>
  <wgt id="44">2.82205e-06</wgt>
  <wgt id="45">2.82644e-06</wgt>
  <wgt id="46">2.82626e-06</wgt>
  <wgt id="47">2.82441e-06</wgt>
  <wgt id="48">2.84301e-06</wgt>
  <wgt id="49">2.81981e-06</wgt>
  <wgt id="50">2.82937e-06</wgt>
  <wgt id="51">2.84099e-06</wgt>
  <wgt id="52">2.83996e-06</wgt>
  <wgt id="53">2.82149e-06</wgt>
</rwgt>
</event>
<event>
 10      0 +2.8251000e-06 1.05455100e+02 7.54677100e-03 1.17720400e-01
       -1 -1    0    0    0  501 +0.00000000000e+00 +0.00000000000e+00 +1.76585413310e+02  1.76585413310e+02  0.00000000000e+00 0.0000e+00 1.0000e+00
       -3 -1    0    0    0  502 +0.00000000000e+00 +0.00000000000e+00 -7.42501919920e+02  7.42501919920e+02  0.00000000000e+00 0.0000e+00 1.0000e+00
       24  2    1    2    0    0 -2.73603750572e+01 +1.48545601638e+01 +5.74658808501e+01  1.04519574774e+02  8.15644896265e+01 0.0000e+00 0.0000e+00
        2  1    3    3  503    0 -1.48199930795e+01 -3.10334345116e+01 +4.24558003652e+01  5.46369951326e+01  0.00000000000e+00 0.0000e+00 -1.0000e+00
       -1  1    3    3    0  503 -1.25403819777e+01 +4.58879946754e+01 +1.50100804849e+01  4.98825796410e+01  0.00000000000e+00 0.0000e+00 1.0000e+00
       24  2    1    2    0    0 +1.81476296040e+01 -2.02732380808e+00 -4.59132107786e+02  4.66647271168e+02  8.13875714495e+01 0.0000e+00 0.0000e+00
        2  1    6    6  504    0 +1.15572438448e+01 +3.95683114490e+01 -2.36991493050e+02  2.40549763946e+02  0.00000000000e+00 0.0000e+00 -1.0000e+00
       -1  1    6    6    0  504 +6.59038575919e+00 -4.15956352571e+01 -2.22140614736e+02  2.26097507222e+02  0.00000000000e+00 0.0000e+00 1.0000e+00
       -2  1    1    2    0  502 -4.63818156851e+01 +1.02720605191e+02 +2.86491998699e+01  1.16290894786e+02  0.00000000000e+00 0.0000e+00 1.0000e+00
       -4  1    1    2    0  501 +5.55945611383e+01 -1.15547841547e+02 -1.92899479544e+02  2.31629592502e+02  0.00000000000e+00 0.0000e+00 1.0000e+00
#  0.1300000e+05  0.1300000e+05  0.1300000e+05  0.1300000e+05
<mgrwt>
<rscale>  2 0.10451502e+03</rscale>
<asrwt>0</asrwt>
<pdfrwt beam="1">  1       -1 0.27166987e-01 0.85408235e+02</pdfrwt>
<pdfrwt beam="2">  1       -3 0.11423106e+00 0.82403321e+02</pdfrwt>
<totfact> 0.72595671e-01</totfact>
</mgrwt>
<clustering>
<clus scale="   82.403">  2  4  1 -1</clus>
<clus scale="   85.408">  1  3  2 -1</clus>
<clus scale="  130.207">  1  5  2 -1</clus>
<clus scale="  130.207">  1  3  2 -1</clus>
</clustering>
<rwgt>
  <wgt id="1">4.45647e-06</wgt>
  <wgt id="2">2.78412e-06</wgt>
  <wgt id="3">1.9087e-06</wgt>
  <wgt id="4">4.52206e-06</wgt>
  <wgt id="5">2.8251e-06</wgt>
  <wgt id="6">1.93679e-06</wgt>
  <wgt id="7">4.41308e-06</wgt>
  <wgt id="8">2.75702e-06</wgt>
  <wgt id="9">1.89012e-06</wgt>
  <wgt id="10">2.8251e-06</wgt>
  <wgt id="11">2.8251e-06</wgt>
  <wgt id="12">2.8251e-06</wgt>
  <wgt id="13">2.8251e-06</wgt>
  <wgt id="14">2.83632e-06</wgt>
  <wgt id="15">2.81602e-06</wgt>
  <wgt id="16">2.79858e-06</wgt>
  <wgt id="17">2.85448e-06</wgt>
  <wgt id="18">2.86668e-06</wgt>
  <wgt id="19">2.76319e-06</wgt>
  <wgt id="20">2.79889e-06</wgt>
  <wgt id="21">2.84267e-06</wgt>
  <wgt id="22">2.89227e-06</wgt>
  <wgt id="23">2.7301e-06</wgt>
  <wgt id="24">2.77287e-06</wgt>
  <wgt id="25">2.85691e-06</wgt>
  <wgt id="26">2.81971e-06</wgt>
  <wgt id="27">2.83274e-06</wgt>
  <wgt id="28">2.82508e-06</wgt>
  <wgt id="29">2.82522e-06</wgt>
  <wgt id="30">2.81722e-06</wgt>
  <wgt id="31">2.83373e-06</wgt>
  <wgt id="32">2.82746e-06</wgt>
  <wgt id="33">2.82303e-06</wgt>
  <wgt id="34">2.81978e-06</wgt>
  <wgt id="35">2.84054e-06</wgt>
  <wgt id="36">2.82603e-06</wgt>
  <wgt id="37">2.8252e-06</wgt>
  <wgt id="38">2.77751e-06</wgt>
  <wgt id="39">2.84773e-06</wgt>
  <wgt id="40">2.82625e-06</wgt>
  <wgt id="41">2.82753e-06</wgt>
  <wgt id="42">2.82029e-06</wgt>
  <wgt id="43">2.81656e-06</wgt>
  <wgt id="44">2.83273e-06</wgt>
  <wgt id="45">2.82173e-06</wgt>
  <wgt id="46">2.77829e-06</wgt>
  <wgt id="47">2.84915e-06</wgt>
  <wgt id="48">2.81257e-06</wgt>
  <wgt id="49">2.83272e-06</wgt>
  <wgt id="50">2.84047e-06</wgt>
  <wgt id="51">2.8149e-06</wgt>
  <wgt id="52">2.91227e-06</wgt>
  <wgt id="53">2.87006e-06</wgt>
</rwgt>
</event>
<event>
 11      0 +2.8251000e-06 6.82993100e+02 7.54677100e-03 9.28836200e-02
        2 -1    0    0  503    0 +0.00000000000e+00 +0.00000000000e+00 +2.20021836870e+03  2.20021836870e+03  0.00000000000e+00 0.0000e+00 -1.0000e+00
        4 -1    0    0  501    0 +0.00000000000e+00 +0.00000000000e+00 -2.91358865300e+02  2.91358865300e+02  0.00000000000e+00 0.0000e+00 -1.0000e+00
       24  2    1    2    0    0 +1.54536478325e+01 -1.11414631158e+02 +1.16349149976e+03  1.17182934717e+03  8.25803463891e+01 0.0000e+00 0.0000e+00
       16  1    3    3    0    0 +2.86667694755e+01 -9.25010935336e+01 +1.10037476973e+03  1.10462793276e+03  0.00000000000e+00 0.0000e+00 -1.0000e+00
      -15  1    3    3    0    0 -1.32131216430e+01 -1.89135376247e+01 +6.31167300297e+01  6.72014144098e+01  1.77700000000e+00 0.0000e+00 1.0000e+00
       24  2    1    2    0    0 -8.35940387833e+00 +1.03865478345e+02 -1.59595667222e+02  2.07826546778e+02  8.28443077386e+01 0.0000e+00 0.0000e+00
       14  1    6    6    0    0 +2.52970827830e+01 +4.29076705463e+01 -1.14455331998e+02  1.24824010558e+02  0.00000000000e+00 0.0000e+00 -1.0000e+00
      -13  1    6    6    0    0 -3.36564866614e+01 +6.09578077985e+01 -4.51403352238e+01  8.30025362198e+01  0.00000000000e+00 0.0000e+00 1.0000e+00
       21  1    1    2  503  502 -8.77514516554e+01 -5.79446240716e+01 +7.05747889608e+02  7.13539053180e+02  0.00000000000e+00 0.0000e+00 1.0000e+00
        1  1    1    2  501    0 +9.22604097744e+01 -2.13581910946e+01 +2.69754217885e+02  2.85894200021e+02  0.00000000000e+00 0.0000e+00 -1.0000e+00
        3  1    1    2  502    0 -1.16032020732e+01 +8.68519679798e+01 -7.05384366330e+01  1.12488086849e+02  0.00000000000e+00 0.0000e+00 -1.0000e+00
#  0.1300000e+05  0.1300000e+05  0.1048421e+03  0.1300000e+05  0.1300000e+05
<mgrwt>
<rscale>  2 0.62362771e+03</rscale>
<asrwt>  1 0.10484206e+03</asrwt>
<pdfrwt beam="1">  2        2        2 0.33849513e+00 0.22557073e+00 0.10484206e+03 0.68299315e+03</pdfrwt>
<pdfrwt beam="2">  1        4 0.44824441e-01 0.68299315e+03</pdfrwt>
<totfact> 0.19735353e-02</totfact>
</mgrwt>
<clustering>
<clus scale="   87.030">  3  7 -1 -1</clus>
<clus scale="   94.548">  4  6 -1 -1</clus>
<clus scale="  104.842">  1  5  2 -1</clus>
<clus scale="  474.736">  1  4  2 -1</clus>
<clus scale="  682.993">  1  3  2 -1</clus>
</clustering>
<rwgt>
  <wgt id="1">4.25198e-06</wgt>
  <wgt id="2">2.97513e-06</wgt>
  <wgt id="3">2.20136e-06</wgt>
  <wgt id="4">4.03757e-06</wgt>
  <wgt id="5">2.8251e-06</wgt>
  <wgt id="6">2.09036e-06</wgt>
  <wgt id="7">3.78852e-06</wgt>
  <wgt id="8">2.65084e-06</wgt>
  <wgt id="9">1.96142e-06</wgt>
  <wgt id="10">3.57376e-06</wgt>
  <wgt id="11">2.8251e-06</wgt>
  <wgt id="12">2.33934e-06</wgt>
  <wgt id="13">2.8251e-06</wgt>
  <wgt id="14">2.83352e-06</wgt>
  <wgt id="15">2.81811e-06</wgt>
  <wgt id="16">2.81216e-06</wgt>
  <wgt id="17">2.83946e-06</wgt>
  <wgt id="18">2.81801e-06</wgt>
  <wgt id="19">2.83558e-06</wgt>
  <wgt id="20">2.82548e-06</wgt>
  <wgt id="21">2.8249e-06</wgt>
  <wgt id="22">2.82723e-06</wgt>
  <wgt id="23">2.82203e-06</wgt>
  <wgt id="24">2.83457e-06</wgt>
  <wgt id="25">2.81922e-06</wgt>
  <wgt id="26">2.82999e-06</wgt>
  <wgt id="27">2.81864e-06</wgt>
  <wgt id="28">2.8389e-06</wgt>
  <wgt id="29">2.81988e-06</wgt>
  <wgt id="30">2.8177e-06</wgt>
  <wgt id="31">2.83345e-06</wgt>
  <wgt id="32">2.82053e-06</wgt>
  <wgt id="33">2.82938e-06</wgt>
  <wgt id="34">2.82195e-06</wgt>
  <wgt id="35">2.83198e-06</wgt>
  <wgt id="36">2.81656e-06</wgt>
  <wgt id="37">2.83195e-06</wgt>
  <wgt id="38">2.81387e-06</wgt>
  <wgt id="39">2.83119e-06</wgt>
  <wgt id="40">2.8276e-06</wgt>
  <wgt id="41">2.8234e-06</wgt>
  <wgt id="42">2.82118e-06</wgt>
  <wgt id="43">2.83459e-06</wgt>
  <wgt id="44">2.82524e-06</wgt>
  <wgt id="45">2.82519e-06</wgt>
  <wgt id="46">2.8276e-06</wgt>
  <wgt id="47">2.82357e-06</wgt>
  <wgt id="48">2.83779e-06</wgt>
  <wgt id="49">2.82344e-06</wgt>
  <wgt id="50">2.85747e-06</wgt>
  <wgt id="51">2.79396e-06</wgt>
  <wgt id="52">2.83629e-06</wgt>
  <wgt id="53">2.82256e-06</wgt>
</rwgt>
</event>
<event>
 10      0 +2.8251000e-06 3.55687100e+02 7.54677100e-03 1.00835200e-01
        4 -1    0    0  501    0 +0.00000000000e+00 +0.00000000000e+00 +1.70773450350e+02  1.70773450350e+02  0.00000000000e+00 0.0000e+00 -1.0000e+00
        2 -1    0    0  502    0 +0.00000000000e+00 +0.00000000000e+00 -6.52324327870e+02  6.52324327870e+02  0.00000000000e+00 0.0000e+00 -1.0000e+00
       24  2    1    2    0    0 -4.76398251150e+01 +5.41313880324e+01 -3.73682219822e+02  3.88949506864e+02  8.02717719489e+01 0.0000e+00 0.0000e+00
       14  1    3    3    0    0 -1.63540810679e+01 +5.01321818597e+01 -9.64081018122e+01  1.09887277337e+02  0.00000000000e+00 0.0000e+00 -1.0000e+00
      -13  1    3    3    0    0 -3.12857440471e+01 +3.99920617271e+00 -2.77274118010e+02  2.79062229527e+02  0.00000000000e+00 0.0000e+00 1.0000e+00
       24  2    1    2    0    0 -9.01717223070e+01 -3.91259651581e+01 -1.97476961660e+02  2.33326901839e+02  7.60428305743e+01 0.0000e+00 0.0000e+00
        4  1    6    6  503    0 -9.67655924724e+01 -1.92122882265e+01 -1.33487000742e+02  1.65986358694e+02  0.00000000000e+00 0.0000e+00 -1.0000e+00
       -3  1    6    6    0  503 +6.59387016545e+00 -1.99136769316e+01 -6.39899609183e+01  6.73405431447e+01  0.00000000000e+00 0.0000e+00 1.0000e+00
        1  1    1    2  501    0 +6.46384309167e+01 -2.98256617940e+00 -2.06712456215e+01  6.79288072023e+01  0.00000000000e+00 0.0000e+00 -1.0000e+00
        3  1    1    2  502    0 +7.31731165053e+01 -1.20228566949e+01 +1.10279549583e+02  1.32892562315e+02  0.00000000000e+00 0.0000e+00 -1.0000e+00
#  0.1300000e+05  0.1300000e+05  0.1300000e+05  0.1300000e+05
<mgrwt>
<rscale>  2 0.31920056e+03</rscale>
<asrwt>0</asrwt>
<pdfrwt beam="1">  1        2 0.10035759e+00 0.23070140e+03</pdfrwt>
<pdfrwt beam="2">  1        4 0.26272839e-01 0.35568709e+03</pdfrwt>
<totfact> 0.41245468e+00</totfact>
</mgrwt>
<clustering>
<clus scale="   64.672">  3  5 -1 -1</clus>
<clus scale="   73.723">  4  6 -1 -1</clus>
<clus scale="  230.701">  2  3  1 -1</clus>
<clus scale="  355.687">  2  3  1 -1</clus>
</clustering>
<rwgt>
  <wgt id="1">3.96433e-06</wgt>
  <wgt id="2">2.67764e-06</wgt>
  <wgt id="3">1.93313e-06</wgt>
  <wgt id="4">4.18266e-06</wgt>
  <wgt id="5">2.8251e-06</wgt>
  <wgt id="6">2.03959e-06</wgt>
  <wgt id="7">4.25441e-06</wgt>
  <wgt id="8">2.87356e-06</wgt>
  <wgt id="9">2.07458e-06</wgt>
  <wgt id="10">2.8251e-06</wgt>
  <wgt id="11">2.8251e-06</wgt>
  <wgt id="12">2.8251e-06</wgt>
  <wgt id="13">2.8251e-06</wgt>
  <wgt id="14">2.83258e-06</wgt>
  <wgt id="15">2.819e-06</wgt>
  <wgt id="16">2.82468e-06</wgt>
  <wgt id="17">2.82547e-06</wgt>
  <wgt id="18">2.82052e-06</wgt>
  <wgt id="19">2.83185e-06</wgt>
  <wgt id="20">2.81953e-06</wgt>
  <wgt id="21">2.82884e-06</wgt>
  <wgt id="22">2.82493e-06</wgt>
  <wgt id="23">2.82533e-06</wgt>
  <wgt id="24">2.82369e-06</wgt>
  <wgt id="25">2.8257e-06</wgt>
  <wgt id="26">2.829e-06</wgt>
  <wgt id="27">2.81979e-06</wgt>
  <wgt id="28">2.84118e-06</wgt>
  <wgt id="29">2.81928e-06</wgt>
  <wgt id="30">2.83166e-06</wgt>
  <wgt id="31">2.81519e-06</wgt>
  <wgt id="32">2.82432e-06</wgt>
  <wgt id="33">2.82585e-06</wgt>
  <wgt id="34">2.81654e-06</wgt>
  <wgt id="35">2.84059e-06</wgt>
  <wgt id="36">2.83426e-06</wgt>
  <wgt id="37">2.82077e-06</wgt>
  <wgt id="38">2.81826e-06</wgt>
  <wgt id="39">2.82826e-06</wgt>
  <wgt id="40">2.82193e-06</wgt>
  <wgt id="41">2.82966e-06</wgt>
  <wgt id="42">2.82116e-06</wgt>
  <wgt id="43">2.83141e-06</wgt>
  <wgt id="44">2.82979e-06</wgt>
  <wgt id="45">2.82323e-06</wgt>
  <wgt id="46">2.82929e-06</wgt>
  <wgt id="47">2.82279e-06</wgt>
  <wgt id="48">2.8112e-06</wgt>
  <wgt id="49">2.83254e-06</wgt>
  <wgt id="50">2.8438e-06</wgt>
  <wgt id="51">2.79483e-06</wgt>
  <wgt id="52">2.82566e-06</wgt>
  <wgt id="53">2.82488e-06</wgt>
</rwgt>
</event>
<event>
 10      0 +2.8251000e-06 1.15661600e+02 7.54677100e-03 1.17482300e-01
        2 -1    0    0  502    0 +0.00000000000e+00 +0.00000000000e+00 +1.87181455920e+03  1.87181455920e+03  0.00000000000e+00 0.0000e+00 -1.0000e+00
        4 -1    0    0  501    0 +0.00000000000e+00 +0.00000000000e+00 -5.23901983300e+01  5.23901983300e+01  0.00000000000e+00 0.0000e+00 -1.0000e+00
       24  2    1    2    0    0 -1.35958833943e-01 -2.59046009601e+01 +1.80504975506e+02  1.99486194026e+02  8.08803349947e+01 0.0000e+00 0.0000e+00
        4  1    3    3  503    0 -6.16009489420e+00 -1.99616707040e+01 +2.23850157768e+00  2.10101393549e+01  0.00000000000e+00 0.0000e+00 -1.0000e+00
       -3  1    3    3    0  503 +6.02413606026e+00 -5.94293025613e+00 +1.78266473929e+02  1.78476054671e+02  0.00000000000e+00 0.0000e+00 1.0000e+00
       24  2    1    2    0    0 -4.60125950567e+00 +1.07258135243e+01 +7.27833654271e+02  7.32481551186e+02  8.15547661000e+01 0.0000e+00 0.0000e+00
       16  1    6    6    0    0 +3.18795944868e+00 +1.79070004934e+01 +7.17337698805e+02  7.17568253115e+02  0.00000000000e+00 0.0000e+00 -1.0000e+00
      -15  1    6    6    0    0 -7.78921895435e+00 -7.18118696910e+00 +1.04959554663e+01  1.49132980710e+01  1.77700000000e+00 0.0000e+00 1.0000e+00
        1  1    1    2  501    0 +2.12297750112e+01 -8.66774517974e+01 +8.79943414603e+02  8.84456950281e+02  0.00000000000e+00 0.0000e+00 -1.0000e+00
        3  1    1    2  502    0 -1.64925566716e+01 +1.01856239233e+02 +3.11423164897e+01  1.07780062037e+02  0.00000000000e+00 0.0000e+00 -1.0000e+00
#  0.1300000e+05  0.1300000e+05  0.1300000e+05  0.1300000e+05
<mgrwt>
<rscale>  2 0.10594176e+03</rscale>
<asrwt>0</asrwt>
<pdfrwt beam="1">  1        2 0.28797147e+00 0.81414448e+02</pdfrwt>
<pdfrwt beam="2">  1        4 0.80600305e-02 0.11566157e+03</pdfrwt>
<totfact> 0.89122484e+00</totfact>
</mgrwt>
<clustering>
<clus scale="   81.414">  1  4  2 -1</clus>
<clus scale="   80.460">  1  5  2 -1</clus>
<clus scale="   83.129">  1  6  2 -1</clus>
<clus scale="  115.662">  1  3  2 -1</clus>
</clustering>
<rwgt>
  <wgt id="1">4.24493e-06</wgt>
  <wgt id="2">2.6551e-06</wgt>
  <wgt id="3">1.82151e-06</wgt>
  <wgt id="4">4.51673e-06</wgt>
  <wgt id="5">2.8251e-06</wgt>
  <wgt id="6">1.93814e-06</wgt>
  <wgt id="7">4.53407e-06</wgt>
  <wgt id="8">2.83595e-06</wgt>
  <wgt id="9">1.94558e-06</wgt>
  <wgt id="10">2.8251e-06</wgt>
  <wgt id="11">2.8251e-06</wgt>
  <wgt id="12">2.8251e-06</wgt>
  <wgt id="13">2.8251e-06</wgt>
  <wgt id="14">2.82959e-06</wgt>
  <wgt id="15">2.82147e-06</wgt>
  <wgt id="16">2.81584e-06</wgt>
  <wgt id="17">2.83552e-06</wgt>
  <wgt id="18">2.81994e-06</wgt>
  <wgt id="19">2.83283e-06</wgt>
  <wgt id="20">2.82521e-06</wgt>
  <wgt id="21">2.82509e-06</wgt>
  <wgt id="22">2.82612e-06</wgt>
  <wgt id="23">2.82364e-06</wgt>
  <wgt id="24">2.8285e-06</wgt>
  <wgt id="25">2.82283e-06</wgt>
  <wgt id="26">2.8323e-06</wgt>
  <wgt id="27">2.81533e-06</wgt>
  <wgt id="28">2.84028e-06</wgt>
  <wgt id="29">2.81962e-06</wgt>
  <wgt id="30">2.84029e-06</wgt>
  <wgt id="31">2.8005e-06</wgt>
  <wgt id="32">2.81954e-06</wgt>
  <wgt id="33">2.83044e-06</wgt>
  <wgt id="34">2.79148e-06</wgt>
  <wgt id="35">2.88477e-06</wgt>
  <wgt id="36">2.84166e-06</wgt>
  <wgt id="37">2.81562e-06</wgt>
  <wgt id="38">2.82882e-06</wgt>
  <wgt id="39">2.82372e-06</wgt>
  <wgt id="40">2.83248e-06</wgt>
  <wgt id="41">2.82077e-06</wgt>
  <wgt id="42">2.82859e-06</wgt>
  <wgt id="43">2.82301e-06</wgt>
  <wgt id="44">2.82932e-06</wgt>
  <wgt id="45">2.82365e-06</wgt>
  <wgt id="46">2.8254e-06</wgt>
  <wgt id="47">2.825e-06</wgt>
  <wgt id="48">2.82547e-06</wgt>
  <wgt id="49">2.82895e-06</wgt>
  <wgt id="50">2.8197e-06</wgt>
  <wgt id="51">2.81264e-06</wgt>
  <wgt id="52">2.83012e-06</wgt>
  <wgt id="53">2.82419e-06</wgt>
</rwgt>
</event>
<event>
 11      0 +2.8251000e-06 3.63383600e+02 7.54677100e-03 1.04069000e-01
        2 -1    0    0  503    0 +0.00000000000e+00 +0.00000000000e+00 +3.73937814710e+03  3.73937814710e+03  0.00000000000e+00 0.0000e+00 -1.0000e+00
       -3 -1    0    0    0  501 +0.00000000000e+00 +0.00000000000e+00 -3.92994016450e+02  3.92994016450e+02  0.00000000000e+00 0.0000e+00 1.0000e+00
       24  2    1    2    0    0 -1.59102206255e+01 +1.24925175914e+00 +3.76770848921e+01  8.67381131300e+01  7.64803359895e+01 0.0000e+00 0.0000e+00
       16  1    3    3    0    0 -3.58739483557e+01 -1.77833553042e+01 -4.99528603287e-03  4.00398291886e+01  0.00000000000e+00 0.0000e+00 -1.0000e+00
      -15  1    3    3    0    0 +1.99637277301e+01 +1.90326070633e+01 +3.76820801782e+01  4.66982839413e+01  1.77700000000e+00 0.0000e+00 1.0000e+00
       24  2    1    2    0    0 +4.69606972895e+01 -1.63407006213e+02 +3.13857524836e+03  3.14407971216e+03  7.53358480457e+01 0.0000e+00 0.0000e+00
        4  1    6    6  504    0 -6.27347982239e+00 -4.22868607530e+00 +5.57964820469e+02  5.58016110176e+02  0.00000000000e+00 0.0000e+00 -1.0000e+00
       -3  1    6    6    0  504 +5.32341771119e+01 -1.59178320138e+02 +2.58061042789e+03  2.58606360198e+03  0.00000000000e+00 0.0000e+00 1.0000e+00
       21  1    1    2  503  501 -3.98931642841e+00 -5.27441722410e+01 +8.55015161560e+01  1.00540397930e+02  0.00000000000e+00 0.0000e+00 1.0000e+00
        1  1    1    2  502    0 -5.49748160006e+01 -6.58563021044e+01 +3.81753928408e+02  3.91274002173e+02  0.00000000000e+00 0.0000e+00 -1.0000e+00
       -4  1    1    2    0  502 +2.79136557650e+01 +2.80758228800e+02 -2.97123647168e+02  4.09739938160e+02  0.00000000000e+00 0.0000e+00 1.0000e+00
#  0.1300000e+05  0.1300000e+05  0.5289482e+02  0.1300000e+05  0.1300000e+05
<mgrwt>
<rscale>  2 0.25044281e+03</rscale>
<asrwt>  1 0.52894823e+02</asrwt>
<pdfrwt beam="1">  2        2        2 0.57528895e+00 0.54997061e+00 0.52894823e+02 0.36338356e+03</pdfrwt>
<pdfrwt beam="2">  1       -3 0.60460618e-01 0.81985771e+02</pdfrwt>
<totfact> 0.20633769e-03</totfact>
</mgrwt>
<clustering>
<clus scale="   52.895">  1  5  2 -1</clus>
<clus scale="   81.986">  2  3  1 -1</clus>
<clus scale="   89.038">  4  6 -1 -1</clus>
<clus scale="  280.473">  2  7  1 -1</clus>
<clus scale="  363.384">  1  3  2 -1</clus>
</clustering>
<rwgt>
  <wgt id="1">5.27584e-06</wgt>
  <wgt id="2">3.51147e-06</wgt>
  <wgt id="3">2.51002e-06</wgt>
  <wgt id="4">4.2446e-06</wgt>
  <wgt id="5">2.8251e-06</wgt>
  <wgt id="6">2.0194e-06</wgt>
  <wgt id="7">3.45013e-06</wgt>
  <wgt id="8">2.29632e-06</wgt>
  <wgt id="9">1.64142e-06</wgt>
  <wgt id="10">3.69377e-06</wgt>
  <wgt id="11">2.8251e-06</wgt>
  <wgt id="12">2.29231e-06</wgt>
  <wgt id="13">2.8251e-06</wgt>
  <wgt id="14">2.834e-06</wgt>
  <wgt id="15">2.81789e-06</wgt>
  <wgt id="16">2.77596e-06</wgt>
  <wgt id="17">2.88082e-06</wgt>
  <wgt id="18">2.85152e-06</wgt>
  <wgt id="19">2.78573e-06</wgt>
  <wgt id="20">2.79325e-06</wgt>
  <wgt id="21">2.84663e-06</wgt>
  <wgt id="22">2.86984e-06</wgt>
  <wgt id="23">2.76208e-06</wgt>
  <wgt id="24">2.82641e-06</wgt>
  <wgt id="25">2.82409e-06</wgt>
  <wgt id="26">2.82189e-06</wgt>
  <wgt id="27">2.82987e-06</wgt>
  <wgt id="28">2.80621e-06</wgt>
  <wgt id="29">2.83165e-06</wgt>
  <wgt id="30">2.82256e-06</wgt>
  <wgt id="31">2.82735e-06</wgt>
  <wgt id="32">2.8032e-06</wgt>
  <wgt id="33">2.84644e-06</wgt>
  <wgt id="34">2.79527e-06</wgt>
  <wgt id="35">2.88205e-06</wgt>
  <wgt id="36">2.84621e-06</wgt>
  <wgt id="37">2.81285e-06</wgt>
  <wgt id="38">2.79414e-06</wgt>
  <wgt id="39">2.84003e-06</wgt>
  <wgt id="40">2.85512e-06</wgt>
  <wgt id="41">2.79669e-06</wgt>
  <wgt id="42">2.83258e-06</wgt>
  <wgt id="43">2.81022e-06</wgt>
  <wgt id="44">2.81014e-06</wgt>
  <wgt id="45">2.83054e-06</wgt>
  <wgt id="46">2.84615e-06</wgt>
  <wgt id="47">2.806e-06</wgt>
  <wgt id="48">2.81599e-06</wgt>
  <wgt id="49">2.83813e-06</wgt>
  <wgt id="50">2.83407e-06</wgt>
  <wgt id="51">2.82267e-06</wgt>
  <wgt id="52">2.79954e-06</wgt>
  <wgt id="53">2.88101e-06</wgt>
</rwgt>
</event>
<event>
 10      0 +2.8251000e-06 2.98436900e+02 7.54677100e-03 1.02868400e-01
        2 -1    0    0  501    0 +0.00000000000e+00 +0.00000000000e+00 +1.37681679470e+03  1.37681679470e+03  0.00000000000e+00 0.0000e+00 -1.0000e+00
       -3 -1    0    0    0  501 +0.00000000000e+00 +0.00000000000e+00 -5.26674148300e+01  5.26674148300e+01  0.00000000000e+00 0.0000e+00 1.0000e+00
       24  2    1    2    0    0 -8.16150540982e+00 +8.96184423257e+01 +2.65282332360e+02  2.91549023670e+02  8.07962992053e+01 0.0000e+00 0.0000e+00
       12  1    3    3    0    0 -3.28054755205e+01 +4.63948379981e+01 +7.06877131782e+01  9.06941729735e+01  0.00000000000e+00 0.0000e+00 -1.0000e+00
      -11  1    3    3    0    0 +2.46439701106e+01 +4.32236043276e+01 +1.94594619182e+02  2.00854850697e+02  0.00000000000e+00 0.0000e+00 1.0000e+00
       24  2    1    2    0    0 +2.10347521719e+01 -5.72920200948e+01 +1.12246676145e+02  1.49621455888e+02  7.78615912435e+01 0.0000e+00 0.0000e+00
        2  1    6    6  503    0 +2.06428188245e+01 -4.91471220580e+01 +1.24197384365e+02  1.35153822953e+02  0.00000000000e+00 0.0000e+00 -1.0000e+00
       -1  1    6    6    0  503 +3.91933347338e-01 -8.14489803682e+00 -1.19507082203e+01  1.44676329351e+01  0.00000000000e+00 0.0000e+00 1.0000e+00
        1  1    1    2  502    0 -9.12533369587e+01 -2.74361628839e+01 +8.80533533653e+02  8.85674442687e+02  0.00000000000e+00 0.0000e+00 -1.0000e+00
       -4  1    1    2    0  502 +7.83800901966e+01 -4.89025934691e+00 +6.60868377115e+01  1.02639287285e+02  0.00000000000e+00 0.0000e+00 1.0000e+00
#  0.1300000e+05  0.1300000e+05  0.1300000e+05  0.1300000e+05
<mgrwt>
<rscale>  2 0.27355605e+03</rscale>
<asrwt>0</asrwt>
<pdfrwt beam="1">  1        2 0.21181797e+00 0.29843692e+03</pdfrwt>
<pdfrwt beam="2">  1       -3 0.81026792e-02 0.21068210e+03</pdfrwt>
<totfact> 0.14219615e+01</totfact>
</mgrwt>
<clustering>
<clus scale="   76.245">  3  6 -1 -1</clus>
<clus scale="   95.332">  4  5 -1 -1</clus>
<clus scale="  210.682">  2  3  1 -1</clus>
<clus scale="  298.437">  1  3  2 -1</clus>
</clustering>
<rwgt>
  <wgt id="1">4.06598e-06</wgt>
  <wgt id="2">2.72085e-06</wgt>
  <wgt id="3">1.95205e-06</wgt>
  <wgt id="4">4.22177e-06</wgt>
  <wgt id="5">2.8251e-06</wgt>
  <wgt id="6">2.02684e-06</wgt>
  <wgt id="7">4.24013e-06</wgt>
  <wgt id="8">2.83739e-06</wgt>
  <wgt id="9">2.03566e-06</wgt>
  <wgt id="10">2.8251e-06</wgt>
  <wgt id="11">2.8251e-06</wgt>
  <wgt id="12">2.8251e-06</wgt>
  <wgt id="13">2.8251e-06</wgt>
  <wgt id="14">2.82955e-06</wgt>
  <wgt id="15">2.82139e-06</wgt>
  <wgt id="16">2.80733e-06</wgt>
  <wgt id="17">2.84497e-06</wgt>
  <wgt id="18">2.83175e-06</wgt>
  <wgt id="19">2.81509e-06</wgt>
  <wgt id="20">2.81452e-06</wgt>
  <wgt id="21">2.83221e-06</wgt>
  <wgt id="22">2.83075e-06</wgt>
  <wgt id="23">2.81699e-06</wgt>
  <wgt id="24">2.84745e-06</wgt>
  <wgt id="25">2.81127e-06</wgt>
  <wgt id="26">2.83024e-06</wgt>
  <wgt id="27">2.81801e-06</wgt>
  <wgt id="28">2.8443e-06</wgt>
  <wgt id="29">2.81808e-06</wgt>
  <wgt id="30">2.84315e-06</wgt>
  <wgt id="31">2.79712e-06</wgt>
  <wgt id="32">2.82073e-06</wgt>
  <wgt id="33">2.82916e-06</wgt>
  <wgt id="34">2.78385e-06</wgt>
  <wgt id="35">2.8993e-06</wgt>
  <wgt id="36">2.85067e-06</wgt>
  <wgt id="37">2.80946e-06</wgt>
  <wgt id="38">2.82671e-06</wgt>
  <wgt id="39">2.82441e-06</wgt>
  <wgt id="40">2.83236e-06</wgt>
  <wgt id="41">2.82071e-06</wgt>
  <wgt id="42">2.83597e-06</wgt>
  <wgt id="43">2.80888e-06</wgt>
  <wgt id="44">2.81489e-06</wgt>
  <wgt id="45">2.8292e-06</wgt>
  <wgt id="46">2.84939e-06</wgt>
  <wgt id="47">2.80875e-06</wgt>
  <wgt id="48">2.82097e-06</wgt>
  <wgt id="49">2.83002e-06</wgt>
  <wgt id="50">2.80763e-06</wgt>
  <wgt id="51">2.82715e-06</wgt>
  <wgt id="52">2.80156e-06</wgt>
  <wgt id="53">2.8289e-06</wgt>
</rwgt>
</event>
<event>
 10      0 +2.8251000e-06 1.41331200e+02 7.54677100e-03 1.13054800e-01
        2 -1    0    0  501    0 +0.00000000000e+00 +0.00000000000e+00 +3.06879991520e+02  3.06879991520e+02  0.00000000000e+00 0.0000e+00 -1.0000e+00
        2 -1    0    0  502    0 +0.00000000000e+00 +0.00000000000e+00 -1.49339213950e+03  1.49339213950e+03  0.00000000000e+00 0.0000e+00 -1.0000e+00
       24  2    1    2    0    0 -3.63919049683e+00 -7.99023658128e+01 -3.77620530677e+01  1.06440354612e+02  5.92110181312e+01 0.0000e+00 0.0000e+00
        4  1    3    3  503    0 -1.06835305377e+01 -1.67634834996e+01 -3.80268947927e+01  4.29091707140e+01  0.00000000000e+00 0.0000e+00 -1.0000e+00
       -3  1    3    3    0  503 +7.04434004082e+00 -6.31388823132e+01 +2.64841724931e-01  6.35311838982e+01  0.00000000000e+00 0.0000e+00 1.0000e+00
       24  2    1    2    0    0 +7.61366570803e+01 -5.98677941330e+01 -1.27653990999e+03  1.28271005471e+03  8.00624715165e+01 0.0000e+00 0.0000e+00
        4  1    6    6  504    0 +8.18912765811e+01 -7.39418587357e+01 -1.13951595916e+03  1.14484505538e+03  0.00000000000e+00 0.0000e+00 -1.0000e+00
       -3  1    6    6    0  504 -5.75461950083e+00 +1.40740646027e+01 -1.37023950828e+02  1.37864999332e+02  0.00000000000e+00 0.0000e+00 1.0000e+00
        1  1    1    2  501    0 +1.10000314903e+02 +1.07288245424e+02 -4.24808513410e+01  1.59422268255e+02  0.00000000000e+00 0.0000e+00 -1.0000e+00
        1  1    1    2  502    0 -1.82497781487e+02 +3.24819145214e+01 +1.70270666418e+02  2.51699453438e+02  0.00000000000e+00 0.0000e+00 -1.0000e+00
#  0.1300000e+05  0.1300000e+05  0.1300000e+05  0.1300000e+05
<mgrwt>
<rscale>  2 0.13746817e+03</rscale>
<asrwt>0</asrwt>
<pdfrwt beam="1">  1        2 0.47212306e-01 0.11297397e+03</pdfrwt>
<pdfrwt beam="2">  1        2 0.22975264e+00 0.12621827e+03</pdfrwt>
<totfact> 0.31389064e+00</totfact>
</mgrwt>
<clustering>
<clus scale="  112.974">  1  3  2 -1</clus>
<clus scale="  126.218">  2  4  1 -1</clus>
<clus scale="  158.254">  1  6  2 -1</clus>
<clus scale="  158.254">  1  3  2 -1</clus>
</clustering>
<rwgt>
  <wgt id="1">4.91275e-06</wgt>
  <wgt id="2">3.1366e-06</wgt>
  <wgt id="3">2.18133e-06</wgt>
  <wgt id="4">4.42486e-06</wgt>
  <wgt id="5">2.8251e-06</wgt>
  <wgt id="6">1.9647e-06</wgt>
  <wgt id="7">4.00719e-06</wgt>
  <wgt id="8">2.55843e-06</wgt>
  <wgt id="9">1.77925e-06</wgt>
  <wgt id="10">2.8251e-06</wgt>
  <wgt id="11">2.8251e-06</wgt>
  <wgt id="12">2.8251e-06</wgt>
  <wgt id="13">2.8251e-06</wgt>
  <wgt id="14">2.82827e-06</wgt>
  <wgt id="15">2.82244e-06</wgt>
  <wgt id="16">2.81934e-06</wgt>
  <wgt id="17">2.83138e-06</wgt>
  <wgt id="18">2.81254e-06</wgt>
  <wgt id="19">2.84369e-06</wgt>
  <wgt id="20">2.8167e-06</wgt>
  <wgt id="21">2.83072e-06</wgt>
  <wgt id="22">2.83198e-06</wgt>
  <wgt id="23">2.81526e-06</wgt>
  <wgt id="24">2.86335e-06</wgt>
  <wgt id="25">2.80149e-06</wgt>
  <wgt id="26">2.82457e-06</wgt>
  <wgt id="27">2.82574e-06</wgt>
  <wgt id="28">2.86454e-06</wgt>
  <wgt id="29">2.81071e-06</wgt>
  <wgt id="30">2.83109e-06</wgt>
  <wgt id="31">2.81722e-06</wgt>
  <wgt id="32">2.82852e-06</wgt>
  <wgt id="33">2.82172e-06</wgt>
  <wgt id="34">2.78921e-06</wgt>
  <wgt id="35">2.89086e-06</wgt>
  <wgt id="36">2.83347e-06</wgt>
  <wgt id="37">2.82123e-06</wgt>
  <wgt id="38">2.81747e-06</wgt>
  <wgt id="39">2.82902e-06</wgt>
  <wgt id="40">2.82783e-06</wgt>
  <wgt id="41">2.82265e-06</wgt>
  <wgt id="42">2.84616e-06</wgt>
  <wgt id="43">2.7873e-06</wgt>
  <wgt id="44">2.83332e-06</wgt>
  <wgt id="45">2.82196e-06</wgt>
  <wgt id="46">2.82318e-06</wgt>
  <wgt id="47">2.82657e-06</wgt>
  <wgt id="48">2.80604e-06</wgt>
  <wgt id="49">2.83677e-06</wgt>
  <wgt id="50">2.81561e-06</wgt>
  <wgt id="51">2.8361e-06</wgt>
  <wgt id="52">2.83144e-06</wgt>
  <wgt id="53">2.82342e-06</wgt>
</rwgt>
</event>
<event>
 10      0 +2.8251000e-06 2.41351400e+02 7.54677100e-03 1.07326800e-01
        4 -1    0    0  501    0 +0.00000000000e+00 +0.00000000000e+00 +3.12591404350e+01  3.12591404350e+01  0.00000000000e+00 0.0000e+00 -1.0000e+00
        2 -1    0    0  502    0 +0.00000000000e+00 +0.00000000000e+00 -3.16765223470e+03  3.16765223470e+03  0.00000000000e+00 0.0000e+00 -1.0000e+00
       24  2    1    2    0    0 -2.15738360698e+01 -3.09870143727e+01 -4.39122290181e+02  4.48177884451e+02  8.12982466902e+01 0.0000e+00 0.0000e+00
       14  1    3    3    0    0 -1.97356714393e+01 -5.13823819777e+01 -1.79507960758e+02  1.87757167321e+02  0.00000000000e+00 0.0000e+00 -1.0000e+00
      -13  1    3    3    0    0 -1.83816463045e+00 +2.03953676050e+01 -2.59614329423e+02  2.60420717130e+02  0.00000000000e+00 0.0000e+00 1.0000e+00
       24  2    1    2    0    0 -6.69968832298e+01 +3.82256299537e+01 -5.73697424082e+02  5.84503633572e+02  8.10307479460e+01 0.0000e+00 0.0000e+00
       12  1    6    6    0    0 -6.16043823114e+01 +5.94868195414e+01 -3.77923192275e+02  3.87504478526e+02  0.00000000000e+00 0.0000e+00 -1.0000e+00
      -11  1    6    6    0    0 -5.39250091840e+00 -2.12611895877e+01 -1.95774231807e+02  1.96999155045e+02  0.00000000000e+00 0.0000e+00 1.0000e+00
        1  1    1    2  501    0 -4.46970875266e+01 +2.85730348710e+01 -1.78240879484e+01  5.59637924581e+01  0.00000000000e+00 0.0000e+00 -1.0000e+00
        3  1    1    2  502    0 +1.33267806826e+02 -3.58116504520e+01 -2.10574929205e+03  2.11026606465e+03  0.00000000000e+00 0.0000e+00 -1.0000e+00
#  0.1300000e+05  0.1300000e+05  0.1300000e+05  0.1300000e+05
<mgrwt>
<rscale>  2 0.19911110e+03</rscale>
<asrwt>0</asrwt>
<pdfrwt beam="1">  1        2 0.48733111e+00 0.24135139e+03</pdfrwt>
<pdfrwt beam="2">  1        4 0.48090985e-02 0.11179760e+03</pdfrwt>
<totfact> 0.27686516e+00</totfact>
</mgrwt>
<clustering>
<clus scale="   53.262">  3  5 -1 -1</clus>
<clus scale="  111.798">  1  4  2 -1</clus>
<clus scale="  131.489">  1  6  2 -1</clus>
<clus scale="  241.351">  2  3  1 -1</clus>
</clustering>
<rwgt>
  <wgt id="1">4.19059e-06</wgt>
  <wgt id="2">2.74788e-06</wgt>
  <wgt id="3">1.94469e-06</wgt>
  <wgt id="4">4.30836e-06</wgt>
  <wgt id="5">2.8251e-06</wgt>
  <wgt id="6">1.99935e-06</wgt>
  <wgt id="7">4.18181e-06</wgt>
  <wgt id="8">2.74212e-06</wgt>
  <wgt id="9">1.94062e-06</wgt>
  <wgt id="10">2.8251e-06</wgt>
  <wgt id="11">2.8251e-06</wgt>
  <wgt id="12">2.8251e-06</wgt>
  <wgt id="13">2.8251e-06</wgt>
  <wgt id="14">2.82769e-06</wgt>
  <wgt id="15">2.82303e-06</wgt>
  <wgt id="16">2.81134e-06</wgt>
  <wgt id="17">2.84052e-06</wgt>
  <wgt id="18">2.81828e-06</wgt>
  <wgt id="19">2.83534e-06</wgt>
  <wgt id="20">2.82378e-06</wgt>
  <wgt id="21">2.82609e-06</wgt>
  <wgt id="22">2.82707e-06</wgt>
  <wgt id="23">2.82238e-06</wgt>
  <wgt id="24">2.83306e-06</wgt>
  <wgt id="25">2.82008e-06</wgt>
  <wgt id="26">2.83215e-06</wgt>
  <wgt id="27">2.8156e-06</wgt>
  <wgt id="28">2.81486e-06</wgt>
  <wgt id="29">2.82857e-06</wgt>
  <wgt id="30">2.8318e-06</wgt>
  <wgt id="31">2.80817e-06</wgt>
  <wgt id="32">2.81132e-06</wgt>
  <wgt id="33">2.83835e-06</wgt>
  <wgt id="34">2.78861e-06</wgt>
  <wgt id="35">2.88887e-06</wgt>
  <wgt id="36">2.85214e-06</wgt>
  <wgt id="37">2.80899e-06</wgt>
  <wgt id="38">2.82863e-06</wgt>
  <wgt id="39">2.82371e-06</wgt>
  <wgt id="40">2.84716e-06</wgt>
  <wgt id="41">2.80699e-06</wgt>
  <wgt id="42">2.83144e-06</wgt>
  <wgt id="43">2.8192e-06</wgt>
  <wgt id="44">2.83302e-06</wgt>
  <wgt id="45">2.8221e-06</wgt>
  <wgt id="46">2.8263e-06</wgt>
  <wgt id="47">2.82458e-06</wgt>
  <wgt id="48">2.82743e-06</wgt>
  <wgt id="49">2.83e-06</wgt>
  <wgt id="50">2.81392e-06</wgt>
  <wgt id="51">2.82227e-06</wgt>
  <wgt id="52">2.82799e-06</wgt>
  <wgt id="53">2.825e-06</wgt>
</rwgt>
</event>
<event>
 10      0 +2.8251000e-06 4.71996100e+02 7.54677100e-03 9.98312200e-02
        2 -1    0    0  501    0 +0.00000000000e+00 +0.00000000000e+00 +5.11983778600e+02  5.11983778600e+02  0.00000000000e+00 0.0000e+00 -1.0000e+00
        2 -1    0    0  502    0 +0.00000000000e+00 +0.00000000000e+00 -5.32304362370e+02  5.32304362370e+02  0.00000000000e+00 0.0000e+00 -1.0000e+00
       24  2    1    2    0    0 +3.25220537226e+01 +4.63555735287e+01 +4.28684499240e+02  4.40130926470e+02  8.20872058916e+01 0.0000e+00 0.0000e+00
        2  1    3    3  503    0 -1.07683938378e+01 +4.99541104551e+01 +2.99766823525e+02  3.04091301986e+02  0.00000000000e+00 0.0000e+00 -1.0000e+00
       -1  1    3    3    0  503 +4.32904475604e+01 -3.59853692644e+00 +1.28917675715e+02  1.36039624484e+02  0.00000000000e+00 0.0000e+00 1.0000e+00
       24  2    1    2    0    0 +9.55371895462e+01 -5.50659071381e+01 -2.16348557158e+02  2.54560563222e+02  7.63856887629e+01 0.0000e+00 0.0000e+00
        4  1    6    6  504    0 +9.21525649557e+00 -3.84881028074e+01 -3.41739769602e+01  5.22887723251e+01  0.00000000000e+00 0.0000e+00 -1.0000e+00
       -3  1    6    6    0  504 +8.63219330506e+01 -1.65778043307e+01 -1.82174580198e+02  2.02271790896e+02  0.00000000000e+00 0.0000e+00 1.0000e+00
        1  1    1    2  501    0 -1.83800929536e+02 +3.69173786555e+01 -1.25636918630e+02  2.25677446520e+02  0.00000000000e+00 0.0000e+00 -1.0000e+00
        1  1    1    2  502    0 +5.57416862672e+01 -2.82070450460e+01 -1.07019607222e+02  1.23919204759e+02  0.00000000000e+00 0.0000e+00 -1.0000e+00
#  0.1300000e+05  0.1300000e+05  0.1300000e+05  0.1300000e+05
<mgrwt>
<rscale>  2 0.34528951e+03</rscale>
<asrwt>0</asrwt>
<pdfrwt beam="1">  1        2 0.78766735e-01 0.47199608e+03</pdfrwt>
<pdfrwt beam="2">  1        2 0.81892979e-01 0.13518185e+03</pdfrwt>
<totfact> 0.54587992e+00</totfact>
</mgrwt>
<clustering>
<clus scale="   62.879">  3  6 -1 -1</clus>
<clus scale="  135.182">  2  4  1 -1</clus>
<clus scale="  127.342">  2  5  1 -1</clus>
<clus scale="  471.996">  1  3  2 -1</clus>
</clustering>
<rwgt>
  <wgt id="1">4.35711e-06</wgt>
  <wgt id="2">2.95598e-06</wgt>
  <wgt id="3">2.14067e-06</wgt>
  <wgt id="4">4.1642e-06</wgt>
  <wgt id="5">2.8251e-06</wgt>
  <wgt id="6">2.04589e-06</wgt>
  <wgt id="7">3.96487e-06</wgt>
  <wgt id="8">2.68987e-06</wgt>
  <wgt id="9">1.94796e-06</wgt>
  <wgt id="10">2.8251e-06</wgt>
  <wgt id="11">2.8251e-06</wgt>
  <wgt id="12">2.8251e-06</wgt>
  <wgt id="13">2.8251e-06</wgt>
  <wgt id="14">2.82804e-06</wgt>
  <wgt id="15">2.82273e-06</wgt>
  <wgt id="16">2.82467e-06</wgt>
  <wgt id="17">2.82549e-06</wgt>
  <wgt id="18">2.81303e-06</wgt>
  <wgt id="19">2.84301e-06</wgt>
  <wgt id="20">2.8105e-06</wgt>
  <wgt id="21">2.83495e-06</wgt>
  <wgt id="22">2.831e-06</wgt>
  <wgt id="23">2.81673e-06</wgt>
  <wgt id="24">2.85906e-06</wgt>
  <wgt id="25">2.80413e-06</wgt>
  <wgt id="26">2.82311e-06</wgt>
  <wgt id="27">2.82788e-06</wgt>
  <wgt id="28">2.86552e-06</wgt>
  <wgt id="29">2.81048e-06</wgt>
  <wgt id="30">2.82916e-06</wgt>
  <wgt id="31">2.81985e-06</wgt>
  <wgt id="32">2.83065e-06</wgt>
  <wgt id="33">2.81985e-06</wgt>
  <wgt id="34">2.79368e-06</wgt>
  <wgt id="35">2.88291e-06</wgt>
  <wgt id="36">2.84076e-06</wgt>
  <wgt id="37">2.81832e-06</wgt>
  <wgt id="38">2.81567e-06</wgt>
  <wgt id="39">2.82964e-06</wgt>
  <wgt id="40">2.82523e-06</wgt>
  <wgt id="41">2.82549e-06</wgt>
  <wgt id="42">2.84578e-06</wgt>
  <wgt id="43">2.78702e-06</wgt>
  <wgt id="44">2.83737e-06</wgt>
  <wgt id="45">2.82023e-06</wgt>
  <wgt id="46">2.82682e-06</wgt>
  <wgt id="47">2.82468e-06</wgt>
  <wgt id="48">2.79422e-06</wgt>
  <wgt id="49">2.84043e-06</wgt>
  <wgt id="50">2.81293e-06</wgt>
  <wgt id="51">2.8406e-06</wgt>
  <wgt id="52">2.82648e-06</wgt>
  <wgt id="53">2.82454e-06</wgt>
</rwgt>
</event>
<event>
 11      0 +2.8251000e-06 4.67812100e+02 7.54677100e-03 1.01295500e-01
        2 -1    0    0  503    0 +0.00000000000e+00 +0.00000000000e+00 +8.28109613190e+02  8.28109613190e+02  0.00000000000e+00 0.0000e+00 -1.0000e+00
        4 -1    0    0  501    0 +0.00000000000e+00 +0.00000000000e+00 -1.51827336020e+03  1.51827336020e+03  0.00000000000e+00 0.0000e+00 -1.0000e+00
       24  2    1    2    0    0 +1.71607909776e+02 -1.81365895663e+02 -7.69052068836e+02  8.12526331974e+02  8.00942742226e+01 0.0000e+00 0.0000e+00
       14  1    3    3    0    0 +1.58958937607e+02 -1.20904410401e+02 -5.60438720053e+02  5.94959981204e+02  0.00000000000e+00 0.0000e+00 -1.0000e+00
      -13  1    3    3    0    0 +1.26489721688e+01 -6.04614852624e+01 -2.08613348783e+02  2.17566350770e+02  0.00000000000e+00 0.0000e+00 1.0000e+00
       24  2    1    2    0    0 +3.49450048842e+01 +6.53610487570e+00 +2.50407175133e+02  2.65577499402e+02  8.10171635948e+01 0.0000e+00 0.0000e+00
       14  1    6    6    0    0 +4.77973097995e+01 +2.32497893989e+01 +9.59534985411e+01  1.09691428168e+02  0.00000000000e+00 0.0000e+00 -1.0000e+00
      -13  1    6    6    0    0 -1.28523049153e+01 -1.67136845232e+01 +1.54453676592e+02  1.55886071234e+02  0.00000000000e+00 0.0000e+00 1.0000e+00
       21  1    1    2  503  502 +1.21582811397e+01 -7.27599257564e+01 -1.69459391019e+02  1.84819684561e+02  0.00000000000e+00 0.0000e+00 -1.0000e+00
        1  1    1    2  501    0 -2.90029462416e+02 +3.53272017528e+02 +4.33300181228e+02  6.29815254253e+02  0.00000000000e+00 0.0000e+00 -1.0000e+00
        3  1    1    2  502    0 +7.13182666167e+01 -1.05682300984e+02 -4.35359643516e+02  4.53644203200e+02  0.00000000000e+00 0.0000e+00 -1.0000e+00
#  0.1300000e+05  0.1300000e+05  0.4179073e+02  0.1300000e+05  0.1300000e+05
<mgrwt>
<rscale>  2 0.30808106e+03</rscale>
<asrwt>  1 0.41790735e+02</asrwt>
<pdfrwt beam="1">  1        2 0.12740148e+00 0.87992478e+02</pdfrwt>
<pdfrwt beam="2">  1        4 0.23358052e+00 0.46781213e+03</pdfrwt>
<totfact> 0.14739850e-03</totfact>
</mgrwt>
<clustering>
<clus scale="   41.791">  5  7 -1 -1</clus>
<clus scale="   87.992">  1  4  2 -1</clus>
<clus scale="  204.815">  3  5 -1 -1</clus>
<clus scale="  442.082">  1  6  2 -1</clus>
<clus scale="  467.812">  1  3  2 -1</clus>
</clustering>
<rwgt>
  <wgt id="1">4.73085e-06</wgt>
  <wgt id="2">3.1888e-06</wgt>
  <wgt id="3">2.29889e-06</wgt>
  <wgt id="4">4.19127e-06</wgt>
  <wgt id="5">2.8251e-06</wgt>
  <wgt id="6">2.03669e-06</wgt>
  <wgt id="7">3.70332e-06</wgt>
  <wgt id="8">2.4962e-06</wgt>
  <wgt id="9">1.79958e-06</wgt>
  <wgt id="10">3.74488e-06</wgt>
  <wgt id="11">2.8251e-06</wgt>
  <wgt id="12">2.27385e-06</wgt>
  <wgt id="13">2.8251e-06</wgt>
  <wgt id="14">2.83587e-06</wgt>
  <wgt id="15">2.81618e-06</wgt>
  <wgt id="16">2.82119e-06</wgt>
  <wgt id="17">2.8294e-06</wgt>
  <wgt id="18">2.81997e-06</wgt>
  <wgt id="19">2.83262e-06</wgt>
  <wgt id="20">2.82052e-06</wgt>
  <wgt id="21">2.82815e-06</wgt>
  <wgt id="22">2.82356e-06</wgt>
  <wgt id="23">2.82725e-06</wgt>
  <wgt id="24">2.81522e-06</wgt>
  <wgt id="25">2.83096e-06</wgt>
  <wgt id="26">2.82989e-06</wgt>
  <wgt id="27">2.8186e-06</wgt>
  <wgt id="28">2.84375e-06</wgt>
  <wgt id="29">2.81826e-06</wgt>
  <wgt id="30">2.74105e-06</wgt>
  <wgt id="31">2.93351e-06</wgt>
  <wgt id="32">2.83668e-06</wgt>
  <wgt id="33">2.81443e-06</wgt>
  <wgt id="34">2.95715e-06</wgt>
  <wgt id="35">2.60955e-06</wgt>
  <wgt id="36">2.73463e-06</wgt>
  <wgt id="37">2.8849e-06</wgt>
  <wgt id="38">2.75729e-06</wgt>
  <wgt id="39">2.85811e-06</wgt>
  <wgt id="40">2.79844e-06</wgt>
  <wgt id="41">2.85889e-06</wgt>
  <wgt id="42">2.79967e-06</wgt>
  <wgt id="43">2.86852e-06</wgt>
  <wgt id="44">2.80557e-06</wgt>
  <wgt id="45">2.83303e-06</wgt>
  <wgt id="46">2.83938e-06</wgt>
  <wgt id="47">2.8166e-06</wgt>
  <wgt id="48">2.86361e-06</wgt>
  <wgt id="49">2.80335e-06</wgt>
  <wgt id="50">2.71051e-06</wgt>
  <wgt id="51">2.99862e-06</wgt>
  <wgt id="52">2.84297e-06</wgt>
  <wgt id="53">2.82037e-06</wgt>
</rwgt>
</event>
<event>
 12      0 +2.8251000e-06 2.14042200e+02 7.54677100e-03 1.09847600e-01
        2 -1    0    0  503    0 +0.00000000000e+00 +0.00000000000e+00 +1.49796683720e+03  1.49796683720e+03  0.00000000000e+00 0.0000e+00 -1.0000e+00
       21 -1    0    0  504  503 +0.00000000000e+00 +0.00000000000e+00 -1.16755774590e+03  1.16755774590e+03  0.00000000000e+00 0.0000e+00 -1.0000e+00
       24  2    1    2    0    0 -6.38905660516e+00 -1.41908586998e+01 +4.79443880676e+02  4.86701843290e+02  8.22803076666e+01 0.0000e+00 0.0000e+00
       16  1    3    3    0    0 -1.68849415493e+01 +1.25978107862e+01 +4.21323928097e+02  4.21850279690e+02  0.00000000000e+00 0.0000e+00 -1.0000e+00
      -15  1    3    3    0    0 +1.04958849442e+01 -2.67886694859e+01 +5.81199525786e+01  6.48515635997e+01  1.77700000000e+00 0.0000e+00 1.0000e+00
       24  2    1    2    0    0 -1.75649018529e+02 -5.55853815574e+01 +1.16849046079e+02  2.31944407493e+02  7.87540236745e+01 0.0000e+00 0.0000e+00
        2  1    6    6  505    0 -4.11132312156e+00 +1.43849446755e+01 +1.10147443126e+01  1.85783261732e+01  0.00000000000e+00 0.0000e+00 -1.0000e+00
       -1  1    6    6    0  505 -1.71537695407e+02 -6.99703262329e+01 +1.05834301766e+02  2.13366081320e+02  0.00000000000e+00 0.0000e+00 1.0000e+00
       21  1    1    2  504  502 +5.22873691729e+01 +4.16185823942e+01 -1.00969285238e+03  1.01190203652e+03  0.00000000000e+00 0.0000e+00 -1.0000e+00
        1  1    1    2  501    0 +3.74549214933e+00 +5.59958898355e+01 +4.42133881643e+02  4.45681430718e+02  0.00000000000e+00 0.0000e+00 -1.0000e+00
        3  1    1    2  502    0 -9.93499310252e+01 -1.50872914626e+01 +2.32388105955e+02  2.53184254936e+02  0.00000000000e+00 0.0000e+00 -1.0000e+00
       -4  1    1    2    0  501 +2.25355144837e+02 -1.27509405099e+01 +6.92870293256e+01  2.36110610141e+02  0.00000000000e+00 0.0000e+00 1.0000e+00
#  0.1300000e+05  0.1300000e+05  0.6682870e+02  0.1300000e+05  0.9538045e+02  0.1300000e+05
<mgrwt>
<rscale>  2 0.16835605e+03</rscale>
<asrwt>  2 0.66828702e+02 0.95380449e+02</asrwt>
<pdfrwt beam="1">  3       21       21       -3 0.17962427e+00 0.23984516e-01 0.12783266e-01 0.66828702e+02 0.95380449e+02 0.21404221e+03</pdfrwt>
<pdfrwt beam="2">  1        2 0.23045644e+00 0.81925028e+02</pdfrwt>
<totfact> 0.73998149e-03</totfact>
</mgrwt>
<clustering>
<clus scale="   66.829">  2  5  1 -1</clus>
<clus scale="   81.925">  1  3  2 -1</clus>
<clus scale="   51.362">  1  6  2 -1</clus>
<clus scale="   95.380">  2  7  1 -1</clus>
<clus scale="  198.361">  1  8  2 -1</clus>
<clus scale="  214.042">  2  3  1 -1</clus>
</clustering>
<rwgt>
  <wgt id="1">4.86598e-06</wgt>
  <wgt id="2">3.15392e-06</wgt>
  <wgt id="3">2.21485e-06</wgt>
  <wgt id="4">4.35867e-06</wgt>
  <wgt id="5">2.8251e-06</wgt>
  <wgt id="6">1.98393e-06</wgt>
  <wgt id="7">4.19873e-06</wgt>
  <wgt id="8">2.72144e-06</wgt>
  <wgt id="9">1.91113e-06</wgt>
  <wgt id="10">4.63524e-06</wgt>
  <wgt id="11">2.8251e-06</wgt>
  <wgt id="12">1.90763e-06</wgt>
  <wgt id="13">2.8251e-06</wgt>
  <wgt id="14">2.83349e-06</wgt>
  <wgt id="15">2.81809e-06</wgt>
  <wgt id="16">2.81431e-06</wgt>
  <wgt id="17">2.83707e-06</wgt>
  <wgt id="18">2.81627e-06</wgt>
  <wgt id="19">2.83821e-06</wgt>
  <wgt id="20">2.82406e-06</wgt>
  <wgt id="21">2.82586e-06</wgt>
  <wgt id="22">2.82731e-06</wgt>
  <wgt id="23">2.82203e-06</wgt>
  <wgt id="24">2.83454e-06</wgt>
  <wgt id="25">2.81911e-06</wgt>
  <wgt id="26">2.8261e-06</wgt>
  <wgt id="27">2.82375e-06</wgt>
  <wgt id="28">2.85173e-06</wgt>
  <wgt id="29">2.81541e-06</wgt>
  <wgt id="30">2.7811e-06</wgt>
  <wgt id="31">2.88138e-06</wgt>
  <wgt id="32">2.83277e-06</wgt>
  <wgt id="33">2.81779e-06</wgt>
  <wgt id="34">2.86655e-06</wgt>
  <wgt id="35">2.75703e-06</wgt>
  <wgt id="36">2.7874e-06</wgt>
  <wgt id="37">2.84992e-06</wgt>
  <wgt id="38">2.79138e-06</wgt>
  <wgt id="39">2.84189e-06</wgt>
  <wgt id="40">2.81515e-06</wgt>
  <wgt id="41">2.83699e-06</wgt>
  <wgt id="42">2.82147e-06</wgt>
  <wgt id="43">2.83369e-06</wgt>
  <wgt id="44">2.81881e-06</wgt>
  <wgt id="45">2.8279e-06</wgt>
  <wgt id="46">2.82611e-06</wgt>
  <wgt id="47">2.82471e-06</wgt>
  <wgt id="48">2.84797e-06</wgt>
  <wgt id="49">2.81613e-06</wgt>
  <wgt id="50">2.80948e-06</wgt>
  <wgt id="51">2.87081e-06</wgt>
  <wgt id="52">2.84567e-06</wgt>
  <wgt id="53">2.82062e-06</wgt>
</rwgt>
</event>
<event>
 11      0 +2.8251000e-06 2.13180900e+02 7.54677100e-03 1.06775100e-01
        4 -1    0    0  501    0 +0.00000000000e+00 +0.00000000000e+00 +8.20171894680e+02  8.20171894680e+02  0.00000000000e+00 0.0000e+00 -1.0000e+00
        2 -1    0    0  503    0 +0.00000000000e+00 +0.00000000000e+00 -1.03171960670e+03  1.03171960670e+03  0.00000000000e+00 0.0000e+00 -1.0000e+00
       24  2    1    2    0    0 +4.55507641215e+01 -9.13012309281e+01 -1.85437054364e+02  2.26535369129e+02  8.07501421315e+01 0.0000e+00 0.0000e+00
        4  1    3    3  504    0 -6.90340962934e+00 +1.22328036624e+01 -2.09373689026e+01  2.52125359001e+01  0.00000000000e+00 0.0000e+00 -1.0000e+00
       -3  1    3    3    0  504 +5.24541737508e+01 -1.03534034590e+02 -1.64499685462e+02  2.01322833229e+02  0.00000000000e+00 0.0000e+00 1.0000e+00
       24  2    1    2    0    0 +9.80153685072e+01 +7.36720887278e+01 +3.64851842702e+02  3.93303824835e+02  8.08482676720e+01 0.0000e+00 0.0000e+00
        4  1    6    6  505    0 +7.19637533853e+01 +8.08631099444e+01 +3.39157006133e+02  3.56012779490e+02  0.00000000000e+00 0.0000e+00 -1.0000e+00
       -3  1    6    6    0  505 +2.60516151219e+01 -7.19102121665e+00 +2.56948365691e+01  3.72910453448e+01  0.00000000000e+00 0.0000e+00 1.0000e+00
       21  1    1    2  503  502 +4.30262898116e+01 +1.94447565943e+01 -1.47560276179e+01  4.94681768921e+01  0.00000000000e+00 0.0000e+00 1.0000e+00
        1  1    1    2  501    0 +6.91322940230e+01 -2.08979839236e+02 -6.92186861375e+02  7.26343237281e+02  0.00000000000e+00 0.0000e+00 -1.0000e+00
        3  1    1    2  502    0 -2.55724716463e+02 +2.07164224842e+02 +3.15980388635e+02  4.56240893242e+02  0.00000000000e+00 0.0000e+00 -1.0000e+00
#  0.1300000e+05  0.1300000e+05  0.4721610e+02  0.1300000e+05  0.1300000e+05
<mgrwt>
<rscale>  2 0.20679295e+03</rscale>
<asrwt>  1 0.47216101e+02</asrwt>
<pdfrwt beam="1">  2        2        2 0.15872609e+00 0.15042689e+00 0.47216101e+02 0.21318090e+03</pdfrwt>
<pdfrwt beam="2">  1        4 0.12618029e+00 0.14709629e+03</pdfrwt>
<totfact> 0.93103359e-03</totfact>
</mgrwt>
<clustering>
<clus scale="   47.216">  2  5  1 -1</clus>
<clus scale="  130.242">  2  3  1 -1</clus>
<clus scale="  147.096">  1  4  2 -1</clus>
<clus scale="  308.955">  1  7  2 -1</clus>
<clus scale="  308.955">  2  3  1 -1</clus>
</clustering>
<rwgt>
  <wgt id="1">4.48463e-06</wgt>
  <wgt id="2">2.94812e-06</wgt>
  <wgt id="3">2.08993e-06</wgt>
  <wgt id="4">4.29749e-06</wgt>
  <wgt id="5">2.8251e-06</wgt>
  <wgt id="6">2.00272e-06</wgt>
  <wgt id="7">3.9982e-06</wgt>
  <wgt id="8">2.62836e-06</wgt>
  <wgt id="9">1.86325e-06</wgt>
  <wgt id="10">3.71801e-06</wgt>
  <wgt id="11">2.8251e-06</wgt>
  <wgt id="12">2.2836e-06</wgt>
  <wgt id="13">2.8251e-06</wgt>
  <wgt id="14">2.83478e-06</wgt>
  <wgt id="15">2.8171e-06</wgt>
  <wgt id="16">2.81893e-06</wgt>
  <wgt id="17">2.83192e-06</wgt>
  <wgt id="18">2.81965e-06</wgt>
  <wgt id="19">2.83302e-06</wgt>
  <wgt id="20">2.82179e-06</wgt>
  <wgt id="21">2.82727e-06</wgt>
  <wgt id="22">2.82451e-06</wgt>
  <wgt id="23">2.8258e-06</wgt>
  <wgt id="24">2.8206e-06</wgt>
  <wgt id="25">2.82763e-06</wgt>
  <wgt id="26">2.82962e-06</wgt>
  <wgt id="27">2.81893e-06</wgt>
  <wgt id="28">2.8466e-06</wgt>
  <wgt id="29">2.81723e-06</wgt>
  <wgt id="30">2.77727e-06</wgt>
  <wgt id="31">2.88519e-06</wgt>
  <wgt id="32">2.83258e-06</wgt>
  <wgt id="33">2.8182e-06</wgt>
  <wgt id="34">2.87802e-06</wgt>
  <wgt id="35">2.73522e-06</wgt>
  <wgt id="36">2.7858e-06</wgt>
  <wgt id="37">2.85074e-06</wgt>
  <wgt id="38">2.78709e-06</wgt>
  <wgt id="39">2.84356e-06</wgt>
  <wgt id="40">2.81235e-06</wgt>
  <wgt id="41">2.84186e-06</wgt>
  <wgt id="42">2.81538e-06</wgt>
  <wgt id="43">2.84382e-06</wgt>
  <wgt id="44">2.8164e-06</wgt>
  <wgt id="45">2.82871e-06</wgt>
  <wgt id="46">2.8325e-06</wgt>
  <wgt id="47">2.82075e-06</wgt>
  <wgt id="48">2.84268e-06</wgt>
  <wgt id="49">2.81676e-06</wgt>
  <wgt id="50">2.82043e-06</wgt>
  <wgt id="51">2.85942e-06</wgt>
  <wgt id="52">2.83976e-06</wgt>
  <wgt id="53">2.82136e-06</wgt>
</rwgt>
</event>
<event>
 12      0 +2.8251000e-06 6.42398400e+02 7.54677100e-03 9.84524600e-02
        2 -1    0    0  502    0 +0.00000000000e+00 +0.00000000000e+00 +2.16274632220e+03  2.16274632220e+03  0.00000000000e+00 0.0000e+00 -1.0000e+00
        2 -1    0    0  504    0 +0.00000000000e+00 +0.00000000000e+00 -1.56021750470e+03  1.56021750470e+03  0.00000000000e+00 0.0000e+00 -1.0000e+00
       24  2    1    2    0    0 +7.23815294005e+00 -2.08615706095e+01 +2.80045015988e+02  2.92104946975e+02  8.00780436902e+01 0.0000e+00 0.0000e+00
       12  1    3    3    0    0 +3.13637807727e+01 +1.69327821865e+01 +8.90686575199e+01  9.59355596707e+01  0.00000000000e+00 0.0000e+00 -1.0000e+00
      -11  1    3    3    0    0 -2.41256278327e+01 -3.77943527960e+01 +1.90976358468e+02  1.96169387304e+02  0.00000000000e+00 0.0000e+00 1.0000e+00
       24  2    1    2    0    0 -2.82450349397e+02 +5.48611619646e+02 -1.08236286610e+03  1.25011048804e+03  1.02537550726e+02 0.0000e+00 0.0000e+00
        4  1    6    6  505    0 -1.93722258897e+02 +4.62893156389e+02 -8.84990012986e+02  1.01735230422e+03  0.00000000000e+00 0.0000e+00 -1.0000e+00
       -3  1    6    6    0  505 -8.87280905005e+01 +8.57184632569e+01 -1.97372853117e+02  2.32758183818e+02  0.00000000000e+00 0.0000e+00 1.0000e+00
       21  1    1    2  503  501 -1.34656308844e+02 -4.68819987145e+00 -7.00125972020e+01  1.51842235549e+02  0.00000000000e+00 0.0000e+00 1.0000e+00
       21  1    1    2  504  503 -2.44109761057e+02 -1.59557817317e+02 -3.44289824622e+01  2.93655627127e+02  0.00000000000e+00 0.0000e+00 -1.0000e+00
        1  1    1    2  501    0 -8.09576524585e+00 +1.23768892373e+01 -2.12052779060e+01  2.58532901809e+01  0.00000000000e+00 0.0000e+00 -1.0000e+00
        1  1    1    2  502    0 +6.62074031604e+02 -3.75880921086e+02 +1.53049352518e+03  1.70939723903e+03  0.00000000000e+00 0.0000e+00 -1.0000e+00
#  0.1300000e+05  0.1300000e+05  0.8883209e+02  0.4350370e+03  0.1300000e+05  0.1300000e+05
<mgrwt>
<rscale>  2 0.38568510e+03</rscale>
<asrwt>  2 0.88832094e+02 0.43503705e+03</asrwt>
<pdfrwt beam="1">  1        2 0.33273020e+00 0.83467625e+02</pdfrwt>
<pdfrwt beam="2">  2        2        2 0.24003346e+00 0.16963634e+00 0.43503705e+03 0.64239842e+03</pdfrwt>
<totfact> 0.15323115e-03</totfact>
</mgrwt>
<clustering>
<clus scale="   83.468">  1  3  2 -1</clus>
<clus scale="   88.832">  5  6 -1 -1</clus>
<clus scale="  117.442">  1  7  2 -1</clus>
<clus scale="  435.037">  2  5  1 -1</clus>
<clus scale="  637.345">  1  8  2 -1</clus>
<clus scale="  642.398">  1  3  2 -1</clus>
</clustering>
<rwgt>
  <wgt id="1">5.47626e-06</wgt>
  <wgt id="2">3.73882e-06</wgt>
  <wgt id="3">2.7191e-06</wgt>
  <wgt id="4">4.13793e-06</wgt>
  <wgt id="5">2.8251e-06</wgt>
  <wgt id="6">2.05459e-06</wgt>
  <wgt id="7">3.33072e-06</wgt>
  <wgt id="8">2.27399e-06</wgt>
  <wgt id="9">1.65379e-06</wgt>
  <wgt id="10">4.34317e-06</wgt>
  <wgt id="11">2.8251e-06</wgt>
  <wgt id="12">1.99052e-06</wgt>
  <wgt id="13">2.8251e-06</wgt>
  <wgt id="14">2.82828e-06</wgt>
  <wgt id="15">2.82247e-06</wgt>
  <wgt id="16">2.80103e-06</wgt>
  <wgt id="17">2.85215e-06</wgt>
  <wgt id="18">2.80943e-06</wgt>
  <wgt id="19">2.84843e-06</wgt>
  <wgt id="20">2.8209e-06</wgt>
  <wgt id="21">2.82798e-06</wgt>
  <wgt id="22">2.83511e-06</wgt>
  <wgt id="23">2.81104e-06</wgt>
  <wgt id="24">2.87851e-06</wgt>
  <wgt id="25">2.7925e-06</wgt>
  <wgt id="26">2.82656e-06</wgt>
  <wgt id="27">2.82322e-06</wgt>
  <wgt id="28">2.87198e-06</wgt>
  <wgt id="29">2.80809e-06</wgt>
  <wgt id="30">2.83077e-06</wgt>
  <wgt id="31">2.81811e-06</wgt>
  <wgt id="32">2.8218e-06</wgt>
  <wgt id="33">2.82834e-06</wgt>
  <wgt id="34">2.77755e-06</wgt>
  <wgt id="35">2.91352e-06</wgt>
  <wgt id="36">2.83964e-06</wgt>
  <wgt id="37">2.81822e-06</wgt>
  <wgt id="38">2.81681e-06</wgt>
  <wgt id="39">2.8303e-06</wgt>
  <wgt id="40">2.83582e-06</wgt>
  <wgt id="41">2.81439e-06</wgt>
  <wgt id="42">2.84964e-06</wgt>
  <wgt id="43">2.78745e-06</wgt>
  <wgt id="44">2.83072e-06</wgt>
  <wgt id="45">2.82313e-06</wgt>
  <wgt id="46">2.8219e-06</wgt>
  <wgt id="47">2.82693e-06</wgt>
  <wgt id="48">2.83849e-06</wgt>
  <wgt id="49">2.82618e-06</wgt>
  <wgt id="50">2.81946e-06</wgt>
  <wgt id="51">2.83586e-06</wgt>
  <wgt id="52">2.84555e-06</wgt>
  <wgt id="53">2.82034e-06</wgt>
</rwgt>
</event>
<event>
 11      0 +2.8251000e-06 1.64002600e+02 7.54677100e-03 1.11781800e-01
        4 -1    0    0  503    0 +0.00000000000e+00 +0.00000000000e+00 +2.11871244490e+02  2.11871244490e+02  0.00000000000e+00 0.0000e+00 -1.0000e+00
        2 -1    0    0  502    0 +0.00000000000e+00 +0.00000000000e+00 -2.62135111760e+03  2.62135111760e+03  0.00000000000e+00 0.0000e+00 -1.0000e+00
       24  2    1    2    0    0 +4.08963307681e+01 +5.84349032746e+01 -2.39486481676e+01  1.11616874709e+02  8.24478088226e+01 0.0000e+00 0.0000e+00
       16  1    3    3    0    0 +3.79365797468e+01 +7.06731109608e+01 +4.67374783660e+00  8.03474742266e+01  0.00000000000e+00 0.0000e+00 -1.0000e+00
      -15  1    3    3    0    0 +2.95975102123e+00 -1.22382076862e+01 -2.86223960042e+01  3.12694004820e+01  1.77700000000e+00 0.0000e+00 1.0000e+00
       24  2    1    2    0    0 +1.00936953102e+02 +3.33432143071e+01 -1.54547174407e+03  1.55106914338e+03  7.76694108351e+01 0.0000e+00 0.0000e+00
        4  1    6    6  504    0 +4.10185616813e+01 -2.30139024373e+01 -7.09892524656e+02  7.11448915011e+02  0.00000000000e+00 0.0000e+00 -1.0000e+00
       -3  1    6    6    0  504 +5.99183914208e+01 +5.63571167444e+01 -8.35579219411e+02  8.39620228364e+02  0.00000000000e+00 0.0000e+00 1.0000e+00
       21  1    1    2  503  501 -1.78075030962e+01 -6.69863901710e+01 +1.09028042839e+02  1.29195192481e+02  0.00000000000e+00 0.0000e+00 1.0000e+00
        1  1    1    2  501    0 +7.05087554386e+01 -1.62994513741e+02 -5.31449822385e+02  5.60337050191e+02  0.00000000000e+00 0.0000e+00 -1.0000e+00
        3  1    1    2  502    0 -1.94534536213e+02 +1.38202786331e+02 -4.17637701330e+02  4.81004101335e+02  0.00000000000e+00 0.0000e+00 -1.0000e+00
#  0.1300000e+05  0.1300000e+05  0.6931294e+02  0.1300000e+05  0.1300000e+05
<mgrwt>
<rscale>  2 0.14876600e+03</rscale>
<asrwt>  1 0.69312940e+02</asrwt>
<pdfrwt beam="1">  1        2 0.40328479e+00 0.13428907e+03</pdfrwt>
<pdfrwt beam="2">  2        4        4 0.32595576e-01 0.14145326e-01 0.69312940e+02 0.16400257e+03</pdfrwt>
<totfact> 0.34209378e-02</totfact>
</mgrwt>
<clustering>
<clus scale="   69.313">  1  5  2 -1</clus>
<clus scale="   90.919">  1  3  2 -1</clus>
<clus scale="  134.289">  2  4  1 -1</clus>
<clus scale="  200.291">  2  6  1 -1</clus>
<clus scale="  200.291">  2  3  1 -1</clus>
</clustering>
<rwgt>
  <wgt id="1">4.69383e-06</wgt>
  <wgt id="2">3.01469e-06</wgt>
  <wgt id="3">2.10465e-06</wgt>
  <wgt id="4">4.39864e-06</wgt>
  <wgt id="5">2.8251e-06</wgt>
  <wgt id="6">1.9723e-06</wgt>
  <wgt id="7">4.08784e-06</wgt>
  <wgt id="8">2.62548e-06</wgt>
  <wgt id="9">1.83294e-06</wgt>
  <wgt id="10">3.64223e-06</wgt>
  <wgt id="11">2.8251e-06</wgt>
  <wgt id="12">2.31196e-06</wgt>
  <wgt id="13">2.8251e-06</wgt>
  <wgt id="14">2.83342e-06</wgt>
  <wgt id="15">2.81825e-06</wgt>
  <wgt id="16">2.8119e-06</wgt>
  <wgt id="17">2.83991e-06</wgt>
  <wgt id="18">2.81789e-06</wgt>
  <wgt id="19">2.83576e-06</wgt>
  <wgt id="20">2.82477e-06</wgt>
  <wgt id="21">2.82531e-06</wgt>
  <wgt id="22">2.82723e-06</wgt>
  <wgt id="23">2.82189e-06</wgt>
  <wgt id="24">2.83476e-06</wgt>
  <wgt id="25">2.81897e-06</wgt>
  <wgt id="26">2.83027e-06</wgt>
  <wgt id="27">2.81777e-06</wgt>
  <wgt id="28">2.83093e-06</wgt>
  <wgt id="29">2.82276e-06</wgt>
  <wgt id="30">2.82834e-06</wgt>
  <wgt id="31">2.81959e-06</wgt>
  <wgt id="32">2.81603e-06</wgt>
  <wgt id="33">2.83376e-06</wgt>
  <wgt id="34">2.81256e-06</wgt>
  <wgt id="35">2.8481e-06</wgt>
  <wgt id="36">2.82901e-06</wgt>
  <wgt id="37">2.8241e-06</wgt>
  <wgt id="38">2.81805e-06</wgt>
  <wgt id="39">2.8291e-06</wgt>
  <wgt id="40">2.83241e-06</wgt>
  <wgt id="41">2.81862e-06</wgt>
  <wgt id="42">2.82021e-06</wgt>
  <wgt id="43">2.83569e-06</wgt>
  <wgt id="44">2.82834e-06</wgt>
  <wgt id="45">2.8239e-06</wgt>
  <wgt id="46">2.82805e-06</wgt>
  <wgt id="47">2.82328e-06</wgt>
  <wgt id="48">2.83421e-06</wgt>
  <wgt id="49">2.82557e-06</wgt>
  <wgt id="50">2.85572e-06</wgt>
  <wgt id="51">2.7855e-06</wgt>
  <wgt id="52">2.8336e-06</wgt>
  <wgt id="53">2.82315e-06</wgt>
</rwgt>
</event>
<event>
 11      0 +2.8251000e-06 3.81900300e+02 7.54677100e-03 9.95532900e-02
        4 -1    0    0  503    0 +0.00000000000e+00 +0.00000000000e+00 +7.17446858830e+01  7.17446858830e+01  0.00000000000e+00 0.0000e+00 -1.0000e+00
        2 -1    0    0  502    0 +0.00000000000e+00 +0.00000000000e+00 -1.96646177490e+03  1.96646177490e+03  0.00000000000e+00 0.0000e+00 -1.0000e+00
       24  2    1    2    0    0 -3.48374003900e+01 +2.09065692786e+01 +2.45442824189e+00  8.98814930367e+01  8.01369419655e+01 0.0000e+00 0.0000e+00
        4  1    3    3  504    0 -1.48606854179e+01 +1.66562829117e+01 +4.07595470180e+01  4.64716301052e+01  0.00000000000e+00 0.0000e+00 -1.0000e+00
       -3  1    3    3    0  504 -1.99767149721e+01 +4.25028636690e+00 -3.83051187761e+01  4.34098629315e+01  0.00000000000e+00 0.0000e+00 1.0000e+00
       24  2    1    2    0    0 -1.11117098746e+01 -3.72817028713e+01 -1.04058952203e+03  1.04448381479e+03  8.12803206818e+01 0.0000e+00 0.0000e+00
        4  1    6    6  505    0 +1.73083318716e+00 -1.32991512217e+01 -9.45086312403e+02  9.45181464639e+02  0.00000000000e+00 0.0000e+00 -1.0000e+00
       -3  1    6    6    0  505 -1.28425430617e+01 -2.39825516496e+01 -9.55032096244e+01  9.93023501458e+01  0.00000000000e+00 0.0000e+00 1.0000e+00
       21  1    1    2  503  501 +2.81253350762e+01 +4.97882962783e+01 -1.21824425579e+02  1.34577485439e+02  0.00000000000e+00 0.0000e+00 1.0000e+00
        1  1    1    2  501    0 -2.56245207496e+01 -3.12987462797e+01 -7.23097910218e+02  7.24228427600e+02  0.00000000000e+00 0.0000e+00 -1.0000e+00
        3  1    1    2  502    0 +4.34482959380e+01 -2.11441640592e+00 -1.16596594339e+01  4.50352399213e+01  0.00000000000e+00 0.0000e+00 -1.0000e+00
#  0.1300000e+05  0.1300000e+05  0.5718312e+02  0.1300000e+05  0.1300000e+05
<mgrwt>
<rscale>  2 0.35298724e+03</rscale>
<asrwt>  1 0.57183117e+02</asrwt>
<pdfrwt beam="1">  1        2 0.30253258e+00 0.38190026e+03</pdfrwt>
<pdfrwt beam="2">  2        4        4 0.11037644e-01 0.93370543e-02 0.57183117e+02 0.38190026e+03</pdfrwt>
<totfact> 0.46166284e-01</totfact>
</mgrwt>
<clustering>
<clus scale="   41.557">  3  6 -1 -1</clus>
<clus scale="   43.325">  4  7 -1 -1</clus>
<clus scale="   57.183">  1  5  2 -1</clus>
<clus scale="  278.732">  1  4  2 -1</clus>
<clus scale="  381.900">  2  3  1 -1</clus>
</clustering>
<rwgt>
  <wgt id="1">4.153e-06</wgt>
  <wgt id="2">2.82102e-06</wgt>
  <wgt id="3">2.04468e-06</wgt>
  <wgt id="4">4.159e-06</wgt>
  <wgt id="5">2.8251e-06</wgt>
  <wgt id="6">2.04763e-06</wgt>
  <wgt id="7">4.05244e-06</wgt>
  <wgt id="8">2.75271e-06</wgt>
  <wgt id="9">1.99517e-06</wgt>
  <wgt id="10">3.67822e-06</wgt>
  <wgt id="11">2.8251e-06</wgt>
  <wgt id="12">2.2982e-06</wgt>
  <wgt id="13">2.8251e-06</wgt>
  <wgt id="14">2.83112e-06</wgt>
  <wgt id="15">2.82015e-06</wgt>
  <wgt id="16">2.81477e-06</wgt>
  <wgt id="17">2.83666e-06</wgt>
  <wgt id="18">2.81925e-06</wgt>
  <wgt id="19">2.83383e-06</wgt>
  <wgt id="20">2.82517e-06</wgt>
  <wgt id="21">2.82514e-06</wgt>
  <wgt id="22">2.82683e-06</wgt>
  <wgt id="23">2.82273e-06</wgt>
  <wgt id="24">2.83218e-06</wgt>
  <wgt id="25">2.8206e-06</wgt>
  <wgt id="26">2.83141e-06</wgt>
  <wgt id="27">2.81654e-06</wgt>
  <wgt id="28">2.83899e-06</wgt>
  <wgt id="29">2.81998e-06</wgt>
  <wgt id="30">2.83983e-06</wgt>
  <wgt id="31">2.80313e-06</wgt>
  <wgt id="32">2.81838e-06</wgt>
  <wgt id="33">2.83141e-06</wgt>
  <wgt id="34">2.79668e-06</wgt>
  <wgt id="35">2.876e-06</wgt>
  <wgt id="36">2.83825e-06</wgt>
  <wgt id="37">2.81807e-06</wgt>
  <wgt id="38">2.8264e-06</wgt>
  <wgt id="39">2.82497e-06</wgt>
  <wgt id="40">2.83188e-06</wgt>
  <wgt id="41">2.82035e-06</wgt>
  <wgt id="42">2.82555e-06</wgt>
  <wgt id="43">2.82716e-06</wgt>
  <wgt id="44">2.82901e-06</wgt>
  <wgt id="45">2.82369e-06</wgt>
  <wgt id="46">2.826e-06</wgt>
  <wgt id="47">2.8246e-06</wgt>
  <wgt id="48">2.82769e-06</wgt>
  <wgt id="49">2.8281e-06</wgt>
  <wgt id="50">2.82669e-06</wgt>
  <wgt id="51">2.80665e-06</wgt>
  <wgt id="52">2.83089e-06</wgt>
  <wgt id="53">2.82401e-06</wgt>
</rwgt>
</event>
<event>
 10      0 +2.8251000e-06 5.30889300e+02 7.54677100e-03 9.93883600e-02
        2 -1    0    0  502    0 +0.00000000000e+00 +0.00000000000e+00 +1.31506593700e+03  1.31506593700e+03  0.00000000000e+00 0.0000e+00 -1.0000e+00
       -1 -1    0    0    0  501 +0.00000000000e+00 +0.00000000000e+00 -1.29139701280e+02  1.29139701280e+02  0.00000000000e+00 0.0000e+00 1.0000e+00
       24  2    1    2    0    0 -1.96854738424e+00 -4.16904645638e+01 +2.24003840550e+02  2.46547884800e+02  9.41603361505e+01 0.0000e+00 0.0000e+00
        2  1    3    3  503    0 +3.33719355454e+01 -4.80209360413e+01 +8.63442907175e+01  1.04283425911e+02  0.00000000000e+00 0.0000e+00 -1.0000e+00
       -1  1    3    3    0  503 -3.53404829297e+01 +6.33047147743e+00 +1.37659549832e+02  1.42264458889e+02  0.00000000000e+00 0.0000e+00 1.0000e+00
       24  2    1    2    0    0 +6.62839324936e+01 +3.20716992380e+01 -3.35139748994e+01  1.14258202253e+02  8.06820715506e+01 0.0000e+00 0.0000e+00
       12  1    6    6    0    0 -1.52681874816e+01 +4.65606420944e-02 -2.06841094217e+01  2.57089886895e+01  0.00000000000e+00 0.0000e+00 -1.0000e+00
      -11  1    6    6    0    0 +8.15521199752e+01 +3.20251385959e+01 -1.28298654778e+01  8.85492135635e+01  0.00000000000e+00 0.0000e+00 1.0000e+00
        1  1    1    2  502    0 -7.79592368558e+01 +7.46897579011e+01 +1.00965432826e+03  1.01541029398e+03  0.00000000000e+00 0.0000e+00 -1.0000e+00
       -2  1    1    2    0  501 +1.36438517465e+01 -6.50709925753e+01 -1.42179581945e+01  6.79892572428e+01  0.00000000000e+00 0.0000e+00 1.0000e+00
#  0.1300000e+05  0.1300000e+05  0.1195292e+03  0.1300000e+05
<mgrwt>
<rscale>  2 0.35765795e+03</rscale>
<asrwt>0</asrwt>
<pdfrwt beam="1">  1        2 0.20231784e+00 0.53088934e+03</pdfrwt>
<pdfrwt beam="2">  1       -1 0.19867646e-01 0.10936026e+03</pdfrwt>
<totfact> 0.40993183e+00</totfact>
</mgrwt>
<clustering>
<clus scale="   66.167">  3  6 -1 -1</clus>
<clus scale="  109.360">  2  4  1 -1</clus>
<clus scale="  119.529">  3  5 -1 -1</clus>
<clus scale="  530.889">  1  3  2 -1</clus>
</clustering>
<rwgt>
  <wgt id="1">4.22235e-06</wgt>
  <wgt id="2">2.87029e-06</wgt>
  <wgt id="3">2.08144e-06</wgt>
  <wgt id="4">4.15587e-06</wgt>
  <wgt id="5">2.8251e-06</wgt>
  <wgt id="6">2.04867e-06</wgt>
  <wgt id="7">4.00495e-06</wgt>
  <wgt id="8">2.72251e-06</wgt>
  <wgt id="9">1.97427e-06</wgt>
  <wgt id="10">2.8251e-06</wgt>
  <wgt id="11">2.8251e-06</wgt>
  <wgt id="12">2.8251e-06</wgt>
  <wgt id="13">2.8251e-06</wgt>
  <wgt id="14">2.83026e-06</wgt>
  <wgt id="15">2.82091e-06</wgt>
  <wgt id="16">2.83001e-06</wgt>
  <wgt id="17">2.81945e-06</wgt>
  <wgt id="18">2.81236e-06</wgt>
  <wgt id="19">2.84403e-06</wgt>
  <wgt id="20">2.83071e-06</wgt>
  <wgt id="21">2.82135e-06</wgt>
  <wgt id="22">2.83261e-06</wgt>
  <wgt id="23">2.8145e-06</wgt>
  <wgt id="24">2.86486e-06</wgt>
  <wgt id="25">2.80075e-06</wgt>
  <wgt id="26">2.82705e-06</wgt>
  <wgt id="27">2.82247e-06</wgt>
  <wgt id="28">2.8489e-06</wgt>
  <wgt id="29">2.81644e-06</wgt>
  <wgt id="30">2.83789e-06</wgt>
  <wgt id="31">2.80743e-06</wgt>
  <wgt id="32">2.83197e-06</wgt>
  <wgt id="33">2.81851e-06</wgt>
  <wgt id="34">2.7941e-06</wgt>
  <wgt id="35">2.88181e-06</wgt>
  <wgt id="36">2.85348e-06</wgt>
  <wgt id="37">2.80868e-06</wgt>
  <wgt id="38">2.82066e-06</wgt>
  <wgt id="39">2.8275e-06</wgt>
  <wgt id="40">2.8248e-06</wgt>
  <wgt id="41">2.82673e-06</wgt>
  <wgt id="42">2.84441e-06</wgt>
  <wgt id="43">2.78539e-06</wgt>
  <wgt id="44">2.82952e-06</wgt>
  <wgt id="45">2.82366e-06</wgt>
  <wgt id="46">2.81409e-06</wgt>
  <wgt id="47">2.8326e-06</wgt>
  <wgt id="48">2.83174e-06</wgt>
  <wgt id="49">2.82371e-06</wgt>
  <wgt id="50">2.82271e-06</wgt>
  <wgt id="51">2.81693e-06</wgt>
  <wgt id="52">2.84166e-06</wgt>
  <wgt id="53">2.82077e-06</wgt>
</rwgt>
</event>
<event>
 10      0 +2.8251000e-06 2.27754600e+02 7.54677100e-03 1.06074500e-01
       -3 -1    0    0    0  501 +0.00000000000e+00 +0.00000000000e+00 +1.04732708380e+03  1.04732708380e+03  0.00000000000e+00 0.0000e+00 1.0000e+00
       -3 -1    0    0    0  502 +0.00000000000e+00 +0.00000000000e+00 -4.35881841370e+01  4.35881841370e+01  0.00000000000e+00 0.0000e+00 1.0000e+00
       24  2    1    2    0    0 +1.24094858313e+02 -3.67005904133e+01 +2.51419498367e+02  2.93866114755e+02  7.99941375706e+01 0.0000e+00 0.0000e+00
       16  1    3    3    0    0 +4.02553447909e+01 -3.12877786188e+01 +3.53767782857e+01  6.20558967142e+01  0.00000000000e+00 0.0000e+00 -1.0000e+00
      -15  1    3    3    0    0 +8.38395135223e+01 -5.41281179452e+00 +2.16042720081e+02  2.31810218041e+02  1.77700000000e+00 0.0000e+00 1.0000e+00
       24  2    1    2    0    0 +2.02973557875e+00 -5.32264352042e+01 +3.39568093491e+02  3.54026019791e+02  8.47983451531e+01 0.0000e+00 0.0000e+00
       16  1    6    6    0    0 +2.20765785225e+01 +1.14111817485e+01 +1.63743930239e+02  1.65619035978e+02  0.00000000000e+00 0.0000e+00 -1.0000e+00
      -15  1    6    6    0    0 -2.00468429437e+01 -6.46376169527e+01 +1.75824163252e+02  1.88406983813e+02  1.77700000000e+00 0.0000e+00 1.0000e+00
       -4  1    1    2    0  501 -4.30604353446e+01 +5.61852271786e+01 +1.64780954929e+02  1.79342532469e+02  0.00000000000e+00 0.0000e+00 1.0000e+00
       -4  1    1    2    0  502 -8.30641585474e+01 +3.37417984390e+01 +2.47970352876e+02  2.63680600922e+02  0.00000000000e+00 0.0000e+00 1.0000e+00
#  0.1300000e+05  0.1300000e+05  0.1300000e+05  0.1300000e+05
<mgrwt>
<rscale>  2 0.21710464e+03</rscale>
<asrwt>0</asrwt>
<pdfrwt beam="1">  1       -3 0.16112724e+00 0.18805059e+03</pdfrwt>
<pdfrwt beam="2">  1       -3 0.67058745e-02 0.22775465e+03</pdfrwt>
<totfact> 0.16304678e+00</totfact>
</mgrwt>
<clustering>
<clus scale="   73.201">  3  5 -1 -1</clus>
<clus scale="   89.527">  4  6 -1 -1</clus>
<clus scale="  188.051">  1  4  2 -1</clus>
<clus scale="  227.755">  1  3  2 -1</clus>
</clustering>
<rwgt>
  <wgt id="1">4.03262e-06</wgt>
  <wgt id="2">2.65953e-06</wgt>
  <wgt id="3">1.88939e-06</wgt>
  <wgt id="4">4.28366e-06</wgt>
  <wgt id="5">2.8251e-06</wgt>
  <wgt id="6">2.00701e-06</wgt>
  <wgt id="7">4.35609e-06</wgt>
  <wgt id="8">2.87286e-06</wgt>
  <wgt id="9">2.04094e-06</wgt>
  <wgt id="10">2.8251e-06</wgt>
  <wgt id="11">2.8251e-06</wgt>
  <wgt id="12">2.8251e-06</wgt>
  <wgt id="13">2.8251e-06</wgt>
  <wgt id="14">2.83521e-06</wgt>
  <wgt id="15">2.81679e-06</wgt>
  <wgt id="16">2.77468e-06</wgt>
  <wgt id="17">2.88189e-06</wgt>
  <wgt id="18">2.88784e-06</wgt>
  <wgt id="19">2.73293e-06</wgt>
  <wgt id="20">2.77924e-06</wgt>
  <wgt id="21">2.85599e-06</wgt>
  <wgt id="22">2.89422e-06</wgt>
  <wgt id="23">2.72685e-06</wgt>
  <wgt id="24">2.73292e-06</wgt>
  <wgt id="25">2.88192e-06</wgt>
  <wgt id="26">2.82282e-06</wgt>
  <wgt id="27">2.82815e-06</wgt>
  <wgt id="28">2.81864e-06</wgt>
  <wgt id="29">2.82748e-06</wgt>
  <wgt id="30">2.81029e-06</wgt>
  <wgt id="31">2.83767e-06</wgt>
  <wgt id="32">2.81552e-06</wgt>
  <wgt id="33">2.83439e-06</wgt>
  <wgt id="34">2.82787e-06</wgt>
  <wgt id="35">2.82788e-06</wgt>
  <wgt id="36">2.80587e-06</wgt>
  <wgt id="37">2.83742e-06</wgt>
  <wgt id="38">2.76593e-06</wgt>
  <wgt id="39">2.85287e-06</wgt>
  <wgt id="40">2.83142e-06</wgt>
  <wgt id="41">2.82521e-06</wgt>
  <wgt id="42">2.79384e-06</wgt>
  <wgt id="43">2.87112e-06</wgt>
  <wgt id="44">2.85444e-06</wgt>
  <wgt id="45">2.81357e-06</wgt>
  <wgt id="46">2.75141e-06</wgt>
  <wgt id="47">2.86863e-06</wgt>
  <wgt id="48">2.80014e-06</wgt>
  <wgt id="49">2.8401e-06</wgt>
  <wgt id="50">2.80503e-06</wgt>
  <wgt id="51">2.85009e-06</wgt>
  <wgt id="52">2.90643e-06</wgt>
  <wgt id="53">2.80373e-06</wgt>
</rwgt>
</event>
<event>
 10      0 +2.8251000e-06 2.73627200e+02 7.54677100e-03 1.03699100e-01
       -1 -1    0    0    0  501 +0.00000000000e+00 +0.00000000000e+00 +6.11654381670e+02  6.11654381670e+02  0.00000000000e+00 0.0000e+00 1.0000e+00
       -3 -1    0    0    0  502 +0.00000000000e+00 +0.00000000000e+00 -8.21979116210e+02  8.21979116210e+02  0.00000000000e+00 0.0000e+00 1.0000e+00
       24  2    1    2    0    0 -1.16569379419e+02 +1.59916768808e+01 -4.69237324037e+01  1.52500105712e+02  8.49134361094e+01 0.0000e+00 0.0000e+00
       12  1    3    3    0    0 +1.20604323751e+01 -6.60593319840e+00 -7.33800874565e-02  1.37512823814e+01  0.00000000000e+00 0.0000e+00 -1.0000e+00
      -11  1    3    3    0    0 -1.28629811794e+02 +2.25976100792e+01 -4.68503523163e+01  1.38748823331e+02  0.00000000000e+00 0.0000e+00 1.0000e+00
       24  2    1    2    0    0 +1.47588383399e+01 -1.67856132514e+02 -2.40060132962e+02  3.04301976066e+02  8.11006822925e+01 0.0000e+00 0.0000e+00
       12  1    6    6    0    0 +3.40440404941e+00 -5.00405373784e+01 -1.91621803064e+01  5.36920338798e+01  0.00000000000e+00 0.0000e+00 -1.0000e+00
      -11  1    6    6    0    0 +1.13544342904e+01 -1.17815595136e+02 -2.20897952656e+02  2.50609942186e+02  0.00000000000e+00 0.0000e+00 1.0000e+00
       -2  1    1    2    0  502 -1.81810491061e+00 +4.38613454332e+02 -2.70083187966e+02  5.15101928018e+02  0.00000000000e+00 0.0000e+00 1.0000e+00
       -4  1    1    2    0  501 +1.03628645990e+02 -2.86748998699e+02 +3.46742318791e+02  4.61729488083e+02  0.00000000000e+00 0.0000e+00 1.0000e+00
#  0.1300000e+05  0.1300000e+05  0.1300000e+05  0.1300000e+05
<mgrwt>
<rscale>  2 0.25728941e+03</rscale>
<asrwt>0</asrwt>
<pdfrwt beam="1">  1       -1 0.94100674e-01 0.18285597e+03</pdfrwt>
<pdfrwt beam="2">  1       -3 0.12645833e+00 0.14294193e+03</pdfrwt>
<totfact> 0.48960959e-02</totfact>
</mgrwt>
<clustering>
<clus scale="  142.942">  2  3  1 -1</clus>
<clus scale="  182.856">  1  4  2 -1</clus>
<clus scale="  409.458">  1  5  2 -1</clus>
<clus scale="  409.458">  1  3  2 -1</clus>
</clustering>
<rwgt>
  <wgt id="1">4.82784e-06</wgt>
  <wgt id="2">3.21863e-06</wgt>
  <wgt id="3">2.3033e-06</wgt>
  <wgt id="4">4.23756e-06</wgt>
  <wgt id="5">2.8251e-06</wgt>
  <wgt id="6">2.02168e-06</wgt>
  <wgt id="7">3.72802e-06</wgt>
  <wgt id="8">2.4854e-06</wgt>
  <wgt id="9">1.77859e-06</wgt>
  <wgt id="10">2.8251e-06</wgt>
  <wgt id="11">2.8251e-06</wgt>
  <wgt id="12">2.8251e-06</wgt>
  <wgt id="13">2.8251e-06</wgt>
  <wgt id="14">2.83571e-06</wgt>
  <wgt id="15">2.81654e-06</wgt>
  <wgt id="16">2.80121e-06</wgt>
  <wgt id="17">2.85159e-06</wgt>
  <wgt id="18">2.86453e-06</wgt>
  <wgt id="19">2.76662e-06</wgt>
  <wgt id="20">2.81933e-06</wgt>
  <wgt id="21">2.82874e-06</wgt>
  <wgt id="22">2.89888e-06</wgt>
  <wgt id="23">2.72125e-06</wgt>
  <wgt id="24">2.79188e-06</wgt>
  <wgt id="25">2.84441e-06</wgt>
  <wgt id="26">2.81945e-06</wgt>
  <wgt id="27">2.83308e-06</wgt>
  <wgt id="28">2.83736e-06</wgt>
  <wgt id="29">2.82093e-06</wgt>
  <wgt id="30">2.79423e-06</wgt>
  <wgt id="31">2.86415e-06</wgt>
  <wgt id="32">2.83626e-06</wgt>
  <wgt id="33">2.8147e-06</wgt>
  <wgt id="34">2.84088e-06</wgt>
  <wgt id="35">2.80354e-06</wgt>
  <wgt id="36">2.78106e-06</wgt>
  <wgt id="37">2.84777e-06</wgt>
  <wgt id="38">2.83311e-06</wgt>
  <wgt id="39">2.82174e-06</wgt>
  <wgt id="40">2.81789e-06</wgt>
  <wgt id="41">2.83572e-06</wgt>
  <wgt id="42">2.80606e-06</wgt>
  <wgt id="43">2.83637e-06</wgt>
  <wgt id="44">2.85695e-06</wgt>
  <wgt id="45">2.81247e-06</wgt>
  <wgt id="46">2.78391e-06</wgt>
  <wgt id="47">2.84684e-06</wgt>
  <wgt id="48">2.80236e-06</wgt>
  <wgt id="49">2.83962e-06</wgt>
  <wgt id="50">2.83177e-06</wgt>
  <wgt id="51">2.84327e-06</wgt>
  <wgt id="52">2.89579e-06</wgt>
  <wgt id="53">2.86091e-06</wgt>
</rwgt>
</event>
<event>
 10      0 +2.8251000e-06 3.32621300e+02 7.54677100e-03 1.01191200e-01
        2 -1    0    0  501    0 +0.00000000000e+00 +0.00000000000e+00 +5.44930327100e+02  5.44930327100e+02  0.00000000000e+00 0.0000e+00 -1.0000e+00
        2 -1    0    0  502    0 +0.00000000000e+00 +0.00000000000e+00 -1.73206569350e+03  1.73206569350e+03  0.00000000000e+00 0.0000e+00 -1.0000e+00
       24  2    1    2    0    0 -1.02633979147e+02 +7.72034362120e+01 -9.26638806207e+01  1.77103819990e+02  7.92783958270e+01 0.0000e+00 0.0000e+00
        2  1    3    3  503    0 -9.63763877447e+01 +4.11813075026e+01 -9.36178793410e+01  1.40529767433e+02  0.00000000000e+00 0.0000e+00 -1.0000e+00
       -1  1    3    3    0  503 -6.25759140197e+00 +3.60221287094e+01 +9.53998720293e-01  3.65740525574e+01  0.00000000000e+00 0.0000e+00 1.0000e+00
       24  2    1    2    0    0 +5.84518196629e+01 -4.19813379345e+01 -5.22098559270e+01  1.23319538650e+02  8.54563724965e+01 0.0000e+00 0.0000e+00
        2  1    6    6  504    0 -2.02389550617e+01 +1.37289855754e+00 -1.82038449762e+01  2.72558273468e+01  0.00000000000e+00 0.0000e+00 -1.0000e+00
       -1  1    6    6    0  504 +7.86907747246e+01 -4.33542364921e+01 -3.40060109508e+01  9.60637113032e+01  0.00000000000e+00 0.0000e+00 1.0000e+00
        1  1    1    2  501    0 +1.73541469615e+02 +7.03503187188e+02 -9.87210580925e+02  1.22458895436e+03  0.00000000000e+00 0.0000e+00 -1.0000e+00
        1  1    1    2  502    0 -1.29359310131e+02 -7.38725285465e+02 -5.50510489277e+01  7.51983707597e+02  0.00000000000e+00 0.0000e+00 -1.0000e+00
#  0.1300000e+05  0.1300000e+05  0.1300000e+05  0.1300000e+05
<mgrwt>
<rscale>  2 0.31055847e+03</rscale>
<asrwt>0</asrwt>
<pdfrwt beam="1">  1        2 0.83835435e-01 0.11147790e+03</pdfrwt>
<pdfrwt beam="2">  1        2 0.26647165e+00 0.14669505e+03</pdfrwt>
<totfact> 0.10149953e+00</totfact>
</mgrwt>
<clustering>
<clus scale="  111.478">  1  4  2 -1</clus>
<clus scale="  146.695">  2  3  1 -1</clus>
<clus scale="  754.197">  2  5  1 -1</clus>
<clus scale="  754.197">  1  3  2 -1</clus>
</clustering>
<rwgt>
  <wgt id="1">4.91519e-06</wgt>
  <wgt id="2">3.31462e-06</wgt>
  <wgt id="3">2.39037e-06</wgt>
  <wgt id="4">4.18929e-06</wgt>
  <wgt id="5">2.8251e-06</wgt>
  <wgt id="6">2.03735e-06</wgt>
  <wgt id="7">3.63498e-06</wgt>
  <wgt id="8">2.45129e-06</wgt>
  <wgt id="9">1.76777e-06</wgt>
  <wgt id="10">2.8251e-06</wgt>
  <wgt id="11">2.8251e-06</wgt>
  <wgt id="12">2.8251e-06</wgt>
  <wgt id="13">2.8251e-06</wgt>
  <wgt id="14">2.82806e-06</wgt>
  <wgt id="15">2.82267e-06</wgt>
  <wgt id="16">2.8135e-06</wgt>
  <wgt id="17">2.83794e-06</wgt>
  <wgt id="18">2.81138e-06</wgt>
  <wgt id="19">2.84545e-06</wgt>
  <wgt id="20">2.81545e-06</wgt>
  <wgt id="21">2.83159e-06</wgt>
  <wgt id="22">2.83288e-06</wgt>
  <wgt id="23">2.81403e-06</wgt>
  <wgt id="24">2.8681e-06</wgt>
  <wgt id="25">2.79864e-06</wgt>
  <wgt id="26">2.82475e-06</wgt>
  <wgt id="27">2.82562e-06</wgt>
  <wgt id="28">2.87087e-06</wgt>
  <wgt id="29">2.80851e-06</wgt>
  <wgt id="30">2.83041e-06</wgt>
  <wgt id="31">2.81833e-06</wgt>
  <wgt id="32">2.82705e-06</wgt>
  <wgt id="33">2.82324e-06</wgt>
  <wgt id="34">2.78547e-06</wgt>
  <wgt id="35">2.8983e-06</wgt>
  <wgt id="36">2.84075e-06</wgt>
  <wgt id="37">2.81778e-06</wgt>
  <wgt id="38">2.81614e-06</wgt>
  <wgt id="39">2.82992e-06</wgt>
  <wgt id="40">2.82929e-06</wgt>
  <wgt id="41">2.8212e-06</wgt>
  <wgt id="42">2.84806e-06</wgt>
  <wgt id="43">2.78652e-06</wgt>
  <wgt id="44">2.83383e-06</wgt>
  <wgt id="45">2.82185e-06</wgt>
  <wgt id="46">2.82428e-06</wgt>
  <wgt id="47">2.82587e-06</wgt>
  <wgt id="48">2.81477e-06</wgt>
  <wgt id="49">2.83372e-06</wgt>
  <wgt id="50">2.81593e-06</wgt>
  <wgt id="51">2.83825e-06</wgt>
  <wgt id="52">2.83574e-06</wgt>
  <wgt id="53">2.82241e-06</wgt>
</rwgt>
</event>
<event>
 10      0 +2.8251000e-06 4.33209000e+02 7.54677100e-03 9.98751700e-02
        2 -1    0    0  501    0 +0.00000000000e+00 +0.00000000000e+00 +1.47731820040e+03  1.47731820040e+03  0.00000000000e+00 0.0000e+00 -1.0000e+00
        2 -1    0    0  502    0 +0.00000000000e+00 +0.00000000000e+00 -8.87781134320e+02  8.87781134320e+02  0.00000000000e+00 0.0000e+00 -1.0000e+00
       24  2    1    2    0    0 -1.46072987105e+02 +2.60730076789e+02 -3.43433978440e+02  4.67042398566e+02  1.04231540364e+02 0.0000e+00 0.0000e+00
        4  1    3    3  503    0 -1.38330539964e+02 +1.73536462605e+02 -2.87389088165e+02  3.63101542460e+02  0.00000000000e+00 0.0000e+00 -1.0000e+00
       -3  1    3    3    0  503 -7.74244714195e+00 +8.71936141836e+01 -5.60448902747e+01  1.03940856106e+02  0.00000000000e+00 0.0000e+00 1.0000e+00
       24  2    1    2    0    0 +3.71778949179e+01 -8.51000278890e+01 +4.13768863727e+02  4.32017739773e+02  8.25254159129e+01 0.0000e+00 0.0000e+00
       14  1    6    6    0    0 +5.45887990075e+01 -2.49876375785e+01 +2.37431059610e+02  2.44903709805e+02  0.00000000000e+00 0.0000e+00 -1.0000e+00
      -13  1    6    6    0    0 -1.74109040896e+01 -6.01123903105e+01 +1.76337804117e+02  1.87114029968e+02  0.00000000000e+00 0.0000e+00 1.0000e+00
        1  1    1    2  501    0 -5.42235891217e+01 +4.13618965796e+02 -2.47767521737e+02  4.85190263001e+02  0.00000000000e+00 0.0000e+00 -1.0000e+00
        1  1    1    2  502    0 +1.63118681309e+02 -5.89249014696e+02 +7.66969702530e+02  9.80848933380e+02  0.00000000000e+00 0.0000e+00 -1.0000e+00
#  0.1300000e+05  0.1300000e+05  0.1300000e+05  0.1300000e+05
<mgrwt>
<rscale>  2 0.34409160e+03</rscale>
<asrwt>0</asrwt>
<pdfrwt beam="1">  1        2 0.22727972e+00 0.12384023e+03</pdfrwt>
<pdfrwt beam="2">  1        2 0.13658171e+00 0.31113969e+03</pdfrwt>
<totfact> 0.73845579e-01</totfact>
</mgrwt>
<clustering>
<clus scale="  123.840">  1  4  2 -1</clus>
<clus scale="  311.140">  2  3  1 -1</clus>
<clus scale="  603.170">  2  5  1 -1</clus>
<clus scale="  603.170">  1  3  2 -1</clus>
</clustering>
<rwgt>
  <wgt id="1">4.96916e-06</wgt>
  <wgt id="2">3.37054e-06</wgt>
  <wgt id="3">2.44056e-06</wgt>
  <wgt id="4">4.16501e-06</wgt>
  <wgt id="5">2.8251e-06</wgt>
  <wgt id="6">2.04561e-06</wgt>
  <wgt id="7">3.57036e-06</wgt>
  <wgt id="8">2.42175e-06</wgt>
  <wgt id="9">1.75356e-06</wgt>
  <wgt id="10">2.8251e-06</wgt>
  <wgt id="11">2.8251e-06</wgt>
  <wgt id="12">2.8251e-06</wgt>
  <wgt id="13">2.8251e-06</wgt>
  <wgt id="14">2.82801e-06</wgt>
  <wgt id="15">2.82267e-06</wgt>
  <wgt id="16">2.8099e-06</wgt>
  <wgt id="17">2.84198e-06</wgt>
  <wgt id="18">2.81113e-06</wgt>
  <wgt id="19">2.84575e-06</wgt>
  <wgt id="20">2.81565e-06</wgt>
  <wgt id="21">2.8314e-06</wgt>
  <wgt id="22">2.83318e-06</wgt>
  <wgt id="23">2.81353e-06</wgt>
  <wgt id="24">2.86961e-06</wgt>
  <wgt id="25">2.79764e-06</wgt>
  <wgt id="26">2.82521e-06</wgt>
  <wgt id="27">2.82485e-06</wgt>
  <wgt id="28">2.87814e-06</wgt>
  <wgt id="29">2.80591e-06</wgt>
  <wgt id="30">2.83116e-06</wgt>
  <wgt id="31">2.81739e-06</wgt>
  <wgt id="32">2.82731e-06</wgt>
  <wgt id="33">2.82294e-06</wgt>
  <wgt id="34">2.78399e-06</wgt>
  <wgt id="35">2.90116e-06</wgt>
  <wgt id="36">2.84956e-06</wgt>
  <wgt id="37">2.81124e-06</wgt>
  <wgt id="38">2.81286e-06</wgt>
  <wgt id="39">2.83134e-06</wgt>
  <wgt id="40">2.82764e-06</wgt>
  <wgt id="41">2.82284e-06</wgt>
  <wgt id="42">2.84994e-06</wgt>
  <wgt id="43">2.78507e-06</wgt>
  <wgt id="44">2.83187e-06</wgt>
  <wgt id="45">2.8227e-06</wgt>
  <wgt id="46">2.8236e-06</wgt>
  <wgt id="47">2.82608e-06</wgt>
  <wgt id="48">2.8222e-06</wgt>
  <wgt id="49">2.83077e-06</wgt>
  <wgt id="50">2.81656e-06</wgt>
  <wgt id="51">2.83794e-06</wgt>
  <wgt id="52">2.84081e-06</wgt>
  <wgt id="53">2.82111e-06</wgt>
</rwgt>
</event>
<event>
 11      0 +2.8251000e-06 7.20001000e+02 7.54677100e-03 9.61616900e-02
       -1 -1    0    0    0  501 +0.00000000000e+00 +0.00000000000e+00 +1.27272965690e+03  1.27272965690e+03  0.00000000000e+00 0.0000e+00 1.0000e+00
        2 -1    0    0  503    0 +0.00000000000e+00 +0.00000000000e+00 -1.82624113680e+02  1.82624113680e+02  0.00000000000e+00 0.0000e+00 -1.0000e+00
       24  2    1    2    0    0 -2.04478362966e+02 +1.95598065556e+02 +4.32410231732e+02  5.22991837953e+02  8.04478084752e+01 0.0000e+00 0.0000e+00
        2  1    3    3  504    0 +3.41601172422e-01 +1.67935081670e+01 +7.17138283669e+00  1.82638259876e+01  0.00000000000e+00 0.0000e+00 -1.0000e+00
       -1  1    3    3    0  504 -2.04819964139e+02 +1.78804557389e+02 +4.25238848895e+02  5.04728011965e+02  0.00000000000e+00 0.0000e+00 1.0000e+00
       24  2    1    2    0    0 +2.55686669316e+01 +6.99893558606e+01 +7.59783134736e+01  1.37823080072e+02  8.75798528184e+01 0.0000e+00 0.0000e+00
       12  1    6    6    0    0 +4.58760916458e-01 +2.11620784923e+00 -1.86044070389e+01  1.87299962228e+01  0.00000000000e+00 0.0000e+00 -1.0000e+00
      -11  1    6    6    0    0 +2.51099060151e+01 +6.78731480114e+01 +9.45827205125e+01  1.19093083849e+02  0.00000000000e+00 0.0000e+00 1.0000e+00
       21  1    1    2  503  502 +6.07561337679e+01 +6.85595722540e+01 +4.33725231668e+01  1.01355308218e+02  0.00000000000e+00 0.0000e+00 1.0000e+00
        1  1    1    2  502    0 +4.19697992349e+01 -1.03324414215e+01 -1.64943081147e+01  4.62632207453e+01  0.00000000000e+00 0.0000e+00 -1.0000e+00
       -2  1    1    2    0  501 +7.61837630319e+01 -3.23814552249e+02 +5.54838782962e+02  6.46920323592e+02  0.00000000000e+00 0.0000e+00 1.0000e+00
#  0.1300000e+05  0.1300000e+05  0.9152874e+02  0.1300000e+05  0.2918380e+03
<mgrwt>
<rscale>  2 0.46674416e+03</rscale>
<asrwt>  1 0.91528741e+02</asrwt>
<pdfrwt beam="1">  2        2        2 0.28096017e-01 0.22041046e-01 0.91528741e+02 0.72000102e+03</pdfrwt>
<pdfrwt beam="2">  1       -1 0.19580456e+00 0.72000102e+03</pdfrwt>
<totfact> 0.44143456e-02</totfact>
</mgrwt>
<clustering>
<clus scale="   43.099">  3  6 -1 -1</clus>
<clus scale="   91.529">  2  5  1 -1</clus>
<clus scale="  127.150">  2  4  1 -1</clus>
<clus scale="  291.838">  3  7 -1 -1</clus>
<clus scale="  720.001">  2  3  1 -1</clus>
</clustering>
<rwgt>
  <wgt id="1">4.59098e-06</wgt>
  <wgt id="2">3.16562e-06</wgt>
  <wgt id="3">2.31862e-06</wgt>
  <wgt id="4">4.09713e-06</wgt>
  <wgt id="5">2.8251e-06</wgt>
  <wgt id="6">2.06921e-06</wgt>
  <wgt id="7">3.68406e-06</wgt>
  <wgt id="8">2.54027e-06</wgt>
  <wgt id="9">1.86059e-06</wgt>
  <wgt id="10">3.59514e-06</wgt>
  <wgt id="11">2.8251e-06</wgt>
  <wgt id="12">2.33086e-06</wgt>
  <wgt id="13">2.8251e-06</wgt>
  <wgt id="14">2.83009e-06</wgt>
  <wgt id="15">2.82044e-06</wgt>
  <wgt id="16">2.85184e-06</wgt>
  <wgt id="17">2.79489e-06</wgt>
  <wgt id="18">2.81053e-06</wgt>
  <wgt id="19">2.84646e-06</wgt>
  <wgt id="20">2.83927e-06</wgt>
  <wgt id="21">2.81529e-06</wgt>
  <wgt id="22">2.83568e-06</wgt>
  <wgt id="23">2.80983e-06</wgt>
  <wgt id="24">2.88374e-06</wgt>
  <wgt id="25">2.78897e-06</wgt>
  <wgt id="26">2.82214e-06</wgt>
  <wgt id="27">2.82823e-06</wgt>
  <wgt id="28">2.83837e-06</wgt>
  <wgt id="29">2.81963e-06</wgt>
  <wgt id="30">2.80295e-06</wgt>
  <wgt id="31">2.85146e-06</wgt>
  <wgt id="32">2.83601e-06</wgt>
  <wgt id="33">2.8141e-06</wgt>
  <wgt id="34">2.85032e-06</wgt>
  <wgt id="35">2.78142e-06</wgt>
  <wgt id="36">2.80476e-06</wgt>
  <wgt id="37">2.83357e-06</wgt>
  <wgt id="38">2.95536e-06</wgt>
  <wgt id="39">2.7657e-06</wgt>
  <wgt id="40">2.81931e-06</wgt>
  <wgt id="41">2.83199e-06</wgt>
  <wgt id="42">2.81723e-06</wgt>
  <wgt id="43">2.81787e-06</wgt>
  <wgt id="44">2.92154e-06</wgt>
  <wgt id="45">2.78347e-06</wgt>
  <wgt id="46">2.89845e-06</wgt>
  <wgt id="47">2.77534e-06</wgt>
  <wgt id="48">2.84653e-06</wgt>
  <wgt id="49">2.80311e-06</wgt>
  <wgt id="50">2.81081e-06</wgt>
  <wgt id="51">2.84874e-06</wgt>
  <wgt id="52">2.77784e-06</wgt>
  <wgt id="53">2.83765e-06</wgt>
</rwgt>
</event>
<event>
 10      0 +2.8251000e-06 1.64852100e+02 7.54677100e-03 1.12992200e-01
       -1 -1    0    0    0  501 +0.00000000000e+00 +0.00000000000e+00 +1.00325563130e+02  1.00325563130e+02  0.00000000000e+00 0.0000e+00 1.0000e+00
        2 -1    0    0  501    0 +0.00000000000e+00 +0.00000000000e+00 -6.99573398020e+02  6.99573398020e+02  0.00000000000e+00 0.0000e+00 -1.0000e+00
       24  2    1    2    0    0 +1.36488240836e+00 +1.26533170548e+01 -7.95687918703e+01  1.16357912806e+02  8.39404663813e+01 0.0000e+00 0.0000e+00
        2  1    3    3  503    0 -1.27219142777e+01 +2.25284807336e+01 +8.02684551331e+00  2.70889238610e+01  0.00000000000e+00 0.0000e+00 -1.0000e+00
       -1  1    3    3    0  503 +1.40867966861e+01 -9.87516367873e+00 -8.75956373836e+01  8.92689889446e+01  0.00000000000e+00 0.0000e+00 1.0000e+00
       24  2    1    2    0    0 +1.38930600407e+01 +7.36424971612e+01 -5.13517638357e+01  1.23520918307e+02  8.36909738557e+01 0.0000e+00 0.0000e+00
        2  1    6    6  504    0 -5.29274400660e+00 +8.64068182705e+01 -5.09993245019e+01  1.00474287668e+02  0.00000000000e+00 0.0000e+00 -1.0000e+00
       -1  1    6    6    0  504 +1.91858040473e+01 -1.27643211093e+01 -3.52439333862e-01  2.30466306389e+01  0.00000000000e+00 0.0000e+00 1.0000e+00
        1  1    1    2  502    0 -4.68469110356e+01 -1.69971151767e+02 -4.26055061634e+02  4.61094069633e+02  0.00000000000e+00 0.0000e+00 -1.0000e+00
       -2  1    1    2    0  502 +3.15889685865e+01 +8.36753375508e+01 -4.22722175501e+01  9.89260604048e+01  0.00000000000e+00 0.0000e+00 1.0000e+00
#  0.1300000e+05  0.1300000e+05  0.1300000e+05  0.1300000e+05
<mgrwt>
<rscale>  2 0.13799678e+03</rscale>
<asrwt>0</asrwt>
<pdfrwt beam="1">  1        2 0.10762668e+00 0.16485211e+03</pdfrwt>
<pdfrwt beam="2">  1       -1 0.15434702e-01 0.80945425e+02</pdfrwt>
<totfact> 0.19428728e+01</totfact>
</mgrwt>
<clustering>
<clus scale="   80.945">  1  3  2 -1</clus>
<clus scale="   96.188">  1  6  2 -1</clus>
<clus scale="  143.906">  1  5  2 -1</clus>
<clus scale="  164.852">  2  3  1 -1</clus>
</clustering>
<rwgt>
  <wgt id="1">4.16102e-06</wgt>
  <wgt id="2">2.65742e-06</wgt>
  <wgt id="3">1.84844e-06</wgt>
  <wgt id="4">4.42358e-06</wgt>
  <wgt id="5">2.8251e-06</wgt>
  <wgt id="6">1.96507e-06</wgt>
  <wgt id="7">4.51668e-06</wgt>
  <wgt id="8">2.88456e-06</wgt>
  <wgt id="9">2.00643e-06</wgt>
  <wgt id="10">2.8251e-06</wgt>
  <wgt id="11">2.8251e-06</wgt>
  <wgt id="12">2.8251e-06</wgt>
  <wgt id="13">2.8251e-06</wgt>
  <wgt id="14">2.82979e-06</wgt>
  <wgt id="15">2.82129e-06</wgt>
  <wgt id="16">2.83611e-06</wgt>
  <wgt id="17">2.81272e-06</wgt>
  <wgt id="18">2.81387e-06</wgt>
  <wgt id="19">2.84188e-06</wgt>
  <wgt id="20">2.82541e-06</wgt>
  <wgt id="21">2.82491e-06</wgt>
  <wgt id="22">2.83077e-06</wgt>
  <wgt id="23">2.81714e-06</wgt>
  <wgt id="24">2.85585e-06</wgt>
  <wgt id="25">2.80631e-06</wgt>
  <wgt id="26">2.82641e-06</wgt>
  <wgt id="27">2.82336e-06</wgt>
  <wgt id="28">2.84412e-06</wgt>
  <wgt id="29">2.81823e-06</wgt>
  <wgt id="30">2.83924e-06</wgt>
  <wgt id="31">2.80507e-06</wgt>
  <wgt id="32">2.83262e-06</wgt>
  <wgt id="33">2.81794e-06</wgt>
  <wgt id="34">2.79526e-06</wgt>
  <wgt id="35">2.87913e-06</wgt>
  <wgt id="36">2.85481e-06</wgt>
  <wgt id="37">2.80881e-06</wgt>
  <wgt id="38">2.81932e-06</wgt>
  <wgt id="39">2.82783e-06</wgt>
  <wgt id="40">2.82419e-06</wgt>
  <wgt id="41">2.82783e-06</wgt>
  <wgt id="42">2.84156e-06</wgt>
  <wgt id="43">2.78898e-06</wgt>
  <wgt id="44">2.83247e-06</wgt>
  <wgt id="45">2.82234e-06</wgt>
  <wgt id="46">2.81604e-06</wgt>
  <wgt id="47">2.83159e-06</wgt>
  <wgt id="48">2.81862e-06</wgt>
  <wgt id="49">2.82795e-06</wgt>
  <wgt id="50">2.81612e-06</wgt>
  <wgt id="51">2.82104e-06</wgt>
  <wgt id="52">2.83563e-06</wgt>
  <wgt id="53">2.82211e-06</wgt>
</rwgt>
</event>
<event>
 11      0 +2.8251000e-06 2.47771700e+02 7.54677100e-03 1.04370000e-01
        2 -1    0    0  503    0 +0.00000000000e+00 +0.00000000000e+00 +2.05832354310e+03  2.05832354310e+03  0.00000000000e+00 0.0000e+00 -1.0000e+00
        2 -1    0    0  501    0 +0.00000000000e+00 +0.00000000000e+00 -1.09098619450e+03  1.09098619450e+03  0.00000000000e+00 0.0000e+00 -1.0000e+00
       24  2    1    2    0    0 +4.57174216772e+01 +1.31995962363e+02 -6.69822230099e+02  6.88951873306e+02  8.04974973047e+01 0.0000e+00 0.0000e+00
        2  1    3    3  504    0 +1.69541631154e+01 +1.08935021622e+02 -3.48515505504e+02  3.65537057163e+02  0.00000000000e+00 0.0000e+00 -1.0000e+00
       -1  1    3    3    0  504 +2.87632585618e+01 +2.30609407414e+01 -3.21306724596e+02  3.23414816144e+02  0.00000000000e+00 0.0000e+00 1.0000e+00
       24  2    1    2    0    0 +4.72990451254e+00 -1.49519656742e+02 +3.94775727021e+02  4.31355873658e+02  8.85523311120e+01 0.0000e+00 0.0000e+00
        4  1    6    6  505    0 -1.98579888725e+01 -1.35278646365e+02 +3.66910423042e+02  3.91558310372e+02  0.00000000000e+00 0.0000e+00 -1.0000e+00
       -3  1    6    6    0  505 +2.45878933850e+01 -1.42410103763e+01 +2.78653039789e+01  3.97975632858e+01  0.00000000000e+00 0.0000e+00 1.0000e+00
       21  1    1    2  503  502 +8.55820095795e+01 -1.25854227660e+01 +1.23449595791e+03  1.23752290619e+03  0.00000000000e+00 0.0000e+00 -1.0000e+00
        1  1    1    2  501    0 +1.13332961656e+02 -2.24471150769e+02 +2.54761403184e+02  3.57959537207e+02  0.00000000000e+00 0.0000e+00 -1.0000e+00
        1  1    1    2  502    0 -2.49362297425e+02 +2.54580267914e+02 -2.46873509420e+02  4.33519547242e+02  0.00000000000e+00 0.0000e+00 -1.0000e+00
#  0.1300000e+05  0.1300000e+05  0.8650245e+02  0.1300000e+05  0.1300000e+05
<mgrwt>
<rscale>  2 0.24504284e+03</rscale>
<asrwt>  1 0.86502446e+02</asrwt>
<pdfrwt beam="1">  2        2        2 0.31666516e+00 0.12607057e+00 0.86502446e+02 0.24777171e+03</pdfrwt>
<pdfrwt beam="2">  1        2 0.16784403e+00 0.16136398e+03</pdfrwt>
<totfact> 0.39361535e-02</totfact>
</mgrwt>
<clustering>
<clus scale="   86.502">  1  5  2 -1</clus>
<clus scale="  161.364">  2  3  1 -1</clus>
<clus scale="  168.673">  1  4  2 -1</clus>
<clus scale="  363.964">  1  6  2 -1</clus>
<clus scale="  363.964">  1  3  2 -1</clus>
</clustering>
<rwgt>
  <wgt id="1">4.98591e-06</wgt>
  <wgt id="2">3.31402e-06</wgt>
  <wgt id="3">2.36669e-06</wgt>
  <wgt id="4">4.25034e-06</wgt>
  <wgt id="5">2.8251e-06</wgt>
  <wgt id="6">2.01754e-06</wgt>
  <wgt id="7">3.7688e-06</wgt>
  <wgt id="8">2.50503e-06</wgt>
  <wgt id="9">1.78896e-06</wgt>
  <wgt id="10">3.60407e-06</wgt>
  <wgt id="11">2.8251e-06</wgt>
  <wgt id="12">2.32708e-06</wgt>
  <wgt id="13">2.8251e-06</wgt>
  <wgt id="14">2.82822e-06</wgt>
  <wgt id="15">2.82252e-06</wgt>
  <wgt id="16">2.80463e-06</wgt>
  <wgt id="17">2.84788e-06</wgt>
  <wgt id="18">2.81015e-06</wgt>
  <wgt id="19">2.84732e-06</wgt>
  <wgt id="20">2.81847e-06</wgt>
  <wgt id="21">2.82954e-06</wgt>
  <wgt id="22">2.83419e-06</wgt>
  <wgt id="23">2.81211e-06</wgt>
  <wgt id="24">2.87456e-06</wgt>
  <wgt id="25">2.79472e-06</wgt>
  <wgt id="26">2.82589e-06</wgt>
  <wgt id="27">2.82392e-06</wgt>
  <wgt id="28">2.87482e-06</wgt>
  <wgt id="29">2.80705e-06</wgt>
  <wgt id="30">2.83087e-06</wgt>
  <wgt id="31">2.81791e-06</wgt>
  <wgt id="32">2.82413e-06</wgt>
  <wgt id="33">2.82598e-06</wgt>
  <wgt id="34">2.78046e-06</wgt>
  <wgt id="35">2.90785e-06</wgt>
  <wgt id="36">2.84497e-06</wgt>
  <wgt id="37">2.81452e-06</wgt>
  <wgt id="38">2.81466e-06</wgt>
  <wgt id="39">2.83091e-06</wgt>
  <wgt id="40">2.83221e-06</wgt>
  <wgt id="41">2.81811e-06</wgt>
  <wgt id="42">2.8499e-06</wgt>
  <wgt id="43">2.78635e-06</wgt>
  <wgt id="44">2.83122e-06</wgt>
  <wgt id="45">2.8229e-06</wgt>
  <wgt id="46">2.82268e-06</wgt>
  <wgt id="47">2.82653e-06</wgt>
  <wgt id="48">2.83195e-06</wgt>
  <wgt id="49">2.82791e-06</wgt>
  <wgt id="50">2.81825e-06</wgt>
  <wgt id="51">2.83675e-06</wgt>
  <wgt id="52">2.84376e-06</wgt>
  <wgt id="53">2.82054e-06</wgt>
</rwgt>
</event>
<event>
 10      0 +2.8251000e-06 2.09842500e+02 7.54677100e-03 1.06887500e-01
        2 -1    0    0  501    0 +0.00000000000e+00 +0.00000000000e+00 +1.66058606330e+03  1.66058606330e+03  0.00000000000e+00 0.0000e+00 -1.0000e+00
        2 -1    0    0  502    0 +0.00000000000e+00 +0.00000000000e+00 -3.17745924250e+01  3.17745924250e+01  0.00000000000e+00 0.0000e+00 -1.0000e+00
       24  2    1    2    0    0 +8.00588827772e+01 -9.28618659239e+01 +6.74338714661e+02  6.90239084691e+02  8.16366406096e+01 0.0000e+00 0.0000e+00
       16  1    3    3    0    0 +8.53516191314e+01 -1.03333834495e+02 +5.86409518896e+02  6.01530468133e+02  0.00000000000e+00 0.0000e+00 -1.0000e+00
      -15  1    3    3    0    0 -5.29273635421e+00 +1.04719685708e+01 +8.79291957644e+01  8.87086165580e+01  1.77700000000e+00 0.0000e+00 1.0000e+00
       24  2    1    2    0    0 -5.86789075904e+01 +2.50003089404e+01 +2.95979066945e+02  3.13333566967e+02  8.06603153723e+01 0.0000e+00 0.0000e+00
        2  1    6    6  503    0 -2.76332811586e+01 +4.49299702252e+01 +2.43578002590e+02  2.49223882880e+02  0.00000000000e+00 0.0000e+00 -1.0000e+00
       -1  1    6    6    0  503 -3.10456264318e+01 -1.99296612848e+01 +5.24010643547e+01  6.41096840875e+01  0.00000000000e+00 0.0000e+00 1.0000e+00
        1  1    1    2  501    0 -5.74533383352e+01 +4.57246492077e+01 +7.93935062211e+01  1.08143231231e+02  0.00000000000e+00 0.0000e+00 -1.0000e+00
        1  1    1    2  502    0 +3.60733631483e+01 +2.21369077757e+01 +5.79100183048e+02  5.80644772836e+02  0.00000000000e+00 0.0000e+00 -1.0000e+00
#  0.1300000e+05  0.1300000e+05  0.1300000e+05  0.1300000e+05
<mgrwt>
<rscale>  2 0.20519754e+03</rscale>
<asrwt>0</asrwt>
<pdfrwt beam="1">  1        2 0.25547478e+00 0.20984248e+03</pdfrwt>
<pdfrwt beam="2">  1        2 0.48883988e-02 0.19187056e+03</pdfrwt>
<totfact> 0.33297162e+01</totfact>
</mgrwt>
<clustering>
<clus scale="   42.507">  3  6 -1 -1</clus>
<clus scale="   73.785">  4  5 -1 -1</clus>
<clus scale="  191.871">  2  4  1 -1</clus>
<clus scale="  209.842">  1  3  2 -1</clus>
</clustering>
<rwgt>
  <wgt id="1">4.26909e-06</wgt>
  <wgt id="2">2.80499e-06</wgt>
  <wgt id="3">1.98778e-06</wgt>
  <wgt id="4">4.2997e-06</wgt>
  <wgt id="5">2.8251e-06</wgt>
  <wgt id="6">2.00203e-06</wgt>
  <wgt id="7">4.23867e-06</wgt>
  <wgt id="8">2.785e-06</wgt>
  <wgt id="9">1.97361e-06</wgt>
  <wgt id="10">2.8251e-06</wgt>
  <wgt id="11">2.8251e-06</wgt>
  <wgt id="12">2.8251e-06</wgt>
  <wgt id="13">2.8251e-06</wgt>
  <wgt id="14">2.82696e-06</wgt>
  <wgt id="15">2.82366e-06</wgt>
  <wgt id="16">2.82321e-06</wgt>
  <wgt id="17">2.82726e-06</wgt>
  <wgt id="18">2.8164e-06</wgt>
  <wgt id="19">2.83806e-06</wgt>
  <wgt id="20">2.82492e-06</wgt>
  <wgt id="21">2.82537e-06</wgt>
  <wgt id="22">2.82917e-06</wgt>
  <wgt id="23">2.81951e-06</wgt>
  <wgt id="24">2.84572e-06</wgt>
  <wgt id="25">2.8124e-06</wgt>
  <wgt id="26">2.8289e-06</wgt>
  <wgt id="27">2.82e-06</wgt>
  <wgt id="28">2.84246e-06</wgt>
  <wgt id="29">2.81875e-06</wgt>
  <wgt id="30">2.83371e-06</wgt>
  <wgt id="31">2.80858e-06</wgt>
  <wgt id="32">2.82616e-06</wgt>
  <wgt id="33">2.82415e-06</wgt>
  <wgt id="34">2.78649e-06</wgt>
  <wgt id="35">2.89402e-06</wgt>
  <wgt id="36">2.8381e-06</wgt>
  <wgt id="37">2.81714e-06</wgt>
  <wgt id="38">2.82301e-06</wgt>
  <wgt id="39">2.82652e-06</wgt>
  <wgt id="40">2.83184e-06</wgt>
  <wgt id="41">2.82111e-06</wgt>
  <wgt id="42">2.83525e-06</wgt>
  <wgt id="43">2.80656e-06</wgt>
  <wgt id="44">2.82912e-06</wgt>
  <wgt id="45">2.82373e-06</wgt>
  <wgt id="46">2.81902e-06</wgt>
  <wgt id="47">2.82905e-06</wgt>
  <wgt id="48">2.8248e-06</wgt>
  <wgt id="49">2.82797e-06</wgt>
  <wgt id="50">2.81258e-06</wgt>
  <wgt id="51">2.82852e-06</wgt>
  <wgt id="52">2.83421e-06</wgt>
  <wgt id="53">2.82297e-06</wgt>
</rwgt>
</event>
<event>
 11      0 +2.8251000e-06 1.03693400e+02 7.54677100e-03 1.18470800e-01
        2 -1    0    0  503    0 +0.00000000000e+00 +0.00000000000e+00 +8.40048299350e+02  8.40048299350e+02  0.00000000000e+00 0.0000e+00 -1.0000e+00
        2 -1    0    0  502    0 +0.00000000000e+00 +0.00000000000e+00 -5.86544448330e+02  5.86544448330e+02  0.00000000000e+00 0.0000e+00 -1.0000e+00
       24  2    1    2    0    0 -2.40425884393e+00 -7.50380546636e+00 +3.68051597209e+02  3.78005081341e+02  8.58124452178e+01 0.0000e+00 0.0000e+00
        2  1    3    3  504    0 +3.26468742908e+01 -3.25432239577e+00 +6.40886625724e+01  7.19983727978e+01  0.00000000000e+00 0.0000e+00 -1.0000e+00
       -1  1    3    3    0  504 -3.50511331347e+01 -4.24948307059e+00 +3.03962934637e+02  3.06006708543e+02  0.00000000000e+00 0.0000e+00 1.0000e+00
       24  2    1    2    0    0 -1.80284145510e+01 -3.27177414350e+01 -4.60090407511e+02  4.68643812513e+02  8.09219722156e+01 0.0000e+00 0.0000e+00
        4  1    6    6  505    0 -3.96525606033e+01 -4.64270192694e+01 -3.69264977491e+02  3.74278529015e+02  0.00000000000e+00 0.0000e+00 -1.0000e+00
       -3  1    6    6    0  505 +2.16241460523e+01 +1.37092778344e+01 -9.08254300198e+01  9.43652834973e+01  0.00000000000e+00 0.0000e+00 1.0000e+00
       21  1    1    2  503  501 +8.93989333172e+00 -6.83838089324e+01 +3.30173561850e+02  3.37299344740e+02  0.00000000000e+00 0.0000e+00 -1.0000e+00
        1  1    1    2  501    0 -9.67021455137e+01 +3.17855165225e+01 -2.33143255465e+01  1.04427878381e+02  0.00000000000e+00 0.0000e+00 -1.0000e+00
        1  1    1    2  502    0 +1.08194925577e+02 +7.68198393112e+01 +3.86834250178e+01  1.38216630705e+02  0.00000000000e+00 0.0000e+00 -1.0000e+00
#  0.1300000e+05  0.1300000e+05  0.6896569e+02  0.1300000e+05  0.1300000e+05
<mgrwt>
<rscale>  2 0.10016021e+03</rscale>
<asrwt>  1 0.68965694e+02</asrwt>
<pdfrwt beam="1">  2        2        2 0.12923820e+00 0.77109089e-01 0.68965694e+02 0.10369344e+03</pdfrwt>
<pdfrwt beam="2">  1        2 0.90237607e-01 0.88958423e+02</pdfrwt>
<totfact> 0.52970862e-01</totfact>
</mgrwt>
<clustering>
<clus scale="   68.966">  1  5  2 -1</clus>
<clus scale="   88.958">  2  4  1 -1</clus>
<clus scale="  102.191">  1  3  2 -1</clus>
<clus scale="  105.218">  1  7  2 -1</clus>
<clus scale="  105.218">  1  3  2 -1</clus>
</clustering>
<rwgt>
  <wgt id="1">4.89424e-06</wgt>
  <wgt id="2">3.04601e-06</wgt>
  <wgt id="3">2.08375e-06</wgt>
  <wgt id="4">4.5393e-06</wgt>
  <wgt id="5">2.8251e-06</wgt>
  <wgt id="6">1.93263e-06</wgt>
  <wgt id="7">4.30977e-06</wgt>
  <wgt id="8">2.68225e-06</wgt>
  <wgt id="9">1.83491e-06</wgt>
  <wgt id="10">3.64314e-06</wgt>
  <wgt id="11">2.8251e-06</wgt>
  <wgt id="12">2.31161e-06</wgt>
  <wgt id="13">2.8251e-06</wgt>
  <wgt id="14">2.82782e-06</wgt>
  <wgt id="15">2.8228e-06</wgt>
  <wgt id="16">2.8201e-06</wgt>
  <wgt id="17">2.83048e-06</wgt>
  <wgt id="18">2.81235e-06</wgt>
  <wgt id="19">2.84391e-06</wgt>
  <wgt id="20">2.81042e-06</wgt>
  <wgt id="21">2.83497e-06</wgt>
  <wgt id="22">2.83159e-06</wgt>
  <wgt id="23">2.81579e-06</wgt>
  <wgt id="24">2.86206e-06</wgt>
  <wgt id="25">2.80222e-06</wgt>
  <wgt id="26">2.82356e-06</wgt>
  <wgt id="27">2.82724e-06</wgt>
  <wgt id="28">2.87195e-06</wgt>
  <wgt id="29">2.8081e-06</wgt>
  <wgt id="30">2.8302e-06</wgt>
  <wgt id="31">2.81851e-06</wgt>
  <wgt id="32">2.83001e-06</wgt>
  <wgt id="33">2.82041e-06</wgt>
  <wgt id="34">2.79045e-06</wgt>
  <wgt id="35">2.88895e-06</wgt>
  <wgt id="36">2.8498e-06</wgt>
  <wgt id="37">2.81226e-06</wgt>
  <wgt id="38">2.81329e-06</wgt>
  <wgt id="39">2.83081e-06</wgt>
  <wgt id="40">2.82505e-06</wgt>
  <wgt id="41">2.82569e-06</wgt>
  <wgt id="42">2.84791e-06</wgt>
  <wgt id="43">2.78522e-06</wgt>
  <wgt id="44">2.83626e-06</wgt>
  <wgt id="45">2.82077e-06</wgt>
  <wgt id="46">2.82633e-06</wgt>
  <wgt id="47">2.82472e-06</wgt>
  <wgt id="48">2.80249e-06</wgt>
  <wgt id="49">2.83722e-06</wgt>
  <wgt id="50">2.81352e-06</wgt>
  <wgt id="51">2.84016e-06</wgt>
  <wgt id="52">2.8315e-06</wgt>
  <wgt id="53">2.82324e-06</wgt>
</rwgt>
</event>
<event>
 11      0 +2.8251000e-06 9.75312200e+02 7.54677100e-03 9.16904900e-02
        2 -1    0    0  503    0 +0.00000000000e+00 +0.00000000000e+00 +3.83367843110e+02  3.83367843110e+02  0.00000000000e+00 0.0000e+00 -1.0000e+00
        2 -1    0    0  501    0 +0.00000000000e+00 +0.00000000000e+00 -2.84199013010e+03  2.84199013010e+03  0.00000000000e+00 0.0000e+00 -1.0000e+00
       24  2    1    2    0    0 +2.38502634469e+02 -9.40276200348e+01 -8.45900338693e+02  8.87700740182e+02  8.21006768493e+01 0.0000e+00 0.0000e+00
        4  1    3    3  504    0 +4.76495744601e+01 -3.95836528210e+01 -1.18544002243e+02  1.33753609240e+02  0.00000000000e+00 0.0000e+00 -1.0000e+00
       -3  1    3    3    0  504 +1.90853060009e+02 -5.44439672137e+01 -7.27356336450e+02  7.53947130941e+02  0.00000000000e+00 0.0000e+00 1.0000e+00
       24  2    1    2    0    0 +3.71468528162e+01 +2.18845666668e+02 -2.54236194553e+02  3.48985100314e+02  8.87763658136e+01 0.0000e+00 0.0000e+00
        4  1    6    6  505    0 +4.77463438082e+01 +2.01097164658e+02 -2.55065413851e+02  3.28295824408e+02  0.00000000000e+00 0.0000e+00 -1.0000e+00
       -3  1    6    6    0  505 -1.05994909919e+01 +1.77485020100e+01 +8.29219298245e-01  2.06892759064e+01  0.00000000000e+00 0.0000e+00 1.0000e+00
       21  1    1    2  503  502 -2.88471478179e+01 +1.30516858019e+02 -2.19065432215e+01  1.35450008492e+02  0.00000000000e+00 0.0000e+00 -1.0000e+00
        1  1    1    2  501    0 -1.86482709337e+02 -2.07038312301e+02 -1.57661854284e+03  1.60105174597e+03  0.00000000000e+00 0.0000e+00 -1.0000e+00
        1  1    1    2  502    0 -6.03196301305e+01 -4.82965923522e+01 +2.40039332315e+02  2.52170378257e+02  0.00000000000e+00 0.0000e+00 -1.0000e+00
#  0.1300000e+05  0.1300000e+05  0.1339773e+03  0.1300000e+05  0.1300000e+05
<mgrwt>
<rscale>  2 0.69667930e+03</rscale>
<asrwt>  1 0.13397731e+03</asrwt>
<pdfrwt beam="1">  2        2        2 0.58979668e-01 0.48586580e-01 0.13397731e+03 0.97531218e+03</pdfrwt>
<pdfrwt beam="2">  1        2 0.43722925e+00 0.97531218e+03</pdfrwt>
<totfact> 0.27496109e-02</totfact>
</mgrwt>
<clustering>
<clus scale="   77.360">  3  7 -1 -1</clus>
<clus scale="  133.977">  1  5  2 -1</clus>
<clus scale="  253.922">  1  4  2 -1</clus>
<clus scale="  268.081">  1  6  2 -1</clus>
<clus scale="  975.312">  1  3  2 -1</clus>
</clustering>
<rwgt>
  <wgt id="1">4.78656e-06</wgt>
  <wgt id="2">3.36674e-06</wgt>
  <wgt id="3">2.50036e-06</wgt>
  <wgt id="4">4.0165e-06</wgt>
  <wgt id="5">2.8251e-06</wgt>
  <wgt id="6">2.0981e-06</wgt>
  <wgt id="7">3.43532e-06</wgt>
  <wgt id="8">2.41631e-06</wgt>
  <wgt id="9">1.79451e-06</wgt>
  <wgt id="10">3.53907e-06</wgt>
  <wgt id="11">2.8251e-06</wgt>
  <wgt id="12">2.35442e-06</wgt>
  <wgt id="13">2.8251e-06</wgt>
  <wgt id="14">2.82852e-06</wgt>
  <wgt id="15">2.82222e-06</wgt>
  <wgt id="16">2.8106e-06</wgt>
  <wgt id="17">2.84105e-06</wgt>
  <wgt id="18">2.80993e-06</wgt>
  <wgt id="19">2.8472e-06</wgt>
  <wgt id="20">2.81565e-06</wgt>
  <wgt id="21">2.83125e-06</wgt>
  <wgt id="22">2.83354e-06</wgt>
  <wgt id="23">2.81283e-06</wgt>
  <wgt id="24">2.87193e-06</wgt>
  <wgt id="25">2.79626e-06</wgt>
  <wgt id="26">2.82426e-06</wgt>
  <wgt id="27">2.82618e-06</wgt>
  <wgt id="28">2.84742e-06</wgt>
  <wgt id="29">2.81656e-06</wgt>
  <wgt id="30">2.82686e-06</wgt>
  <wgt id="31">2.82263e-06</wgt>
  <wgt id="32">2.81951e-06</wgt>
  <wgt id="33">2.83022e-06</wgt>
  <wgt id="34">2.78776e-06</wgt>
  <wgt id="35">2.89365e-06</wgt>
  <wgt id="36">2.84072e-06</wgt>
  <wgt id="37">2.81789e-06</wgt>
  <wgt id="38">2.81617e-06</wgt>
  <wgt id="39">2.82984e-06</wgt>
  <wgt id="40">2.83967e-06</wgt>
  <wgt id="41">2.81045e-06</wgt>
  <wgt id="42">2.84476e-06</wgt>
  <wgt id="43">2.79078e-06</wgt>
  <wgt id="44">2.8363e-06</wgt>
  <wgt id="45">2.82052e-06</wgt>
  <wgt id="46">2.82507e-06</wgt>
  <wgt id="47">2.82526e-06</wgt>
  <wgt id="48">2.81665e-06</wgt>
  <wgt id="49">2.83412e-06</wgt>
  <wgt id="50">2.81565e-06</wgt>
  <wgt id="51">2.83892e-06</wgt>
  <wgt id="52">2.83286e-06</wgt>
  <wgt id="53">2.82318e-06</wgt>
</rwgt>
</event>
<event>
 10      0 +2.8251000e-06 3.22788900e+02 7.54677100e-03 1.02814700e-01
       -1 -1    0    0    0  501 +0.00000000000e+00 +0.00000000000e+00 +4.13476391500e+02  4.13476391500e+02  0.00000000000e+00 0.0000e+00 1.0000e+00
        2 -1    0    0  501    0 +0.00000000000e+00 +0.00000000000e+00 -1.52175973460e+03  1.52175973460e+03  0.00000000000e+00 0.0000e+00 -1.0000e+00
       24  2    1    2    0    0 +4.14404546030e+01 -6.18533875033e+01 -1.77545231292e+01  1.09432477537e+02  7.82118355820e+01 0.0000e+00 0.0000e+00
        2  1    3    3  503    0 +4.77336120990e+00 -5.74392125934e+01 -3.62899781501e+01  6.81102828854e+01  0.00000000000e+00 0.0000e+00 -1.0000e+00
       -1  1    3    3    0  503 +3.66670933931e+01 -4.41417490985e+00 +1.85354550209e+01  4.13221946521e+01  0.00000000000e+00 0.0000e+00 1.0000e+00
       24  2    1    2    0    0 -5.41392926106e+01 +1.93991506975e+02 -7.36953416344e+02  7.68196934008e+02  8.03892018569e+01 0.0000e+00 0.0000e+00
        4  1    6    6  504    0 -6.96285102158e+01 +1.05063339250e+02 -4.55996627462e+02  4.73095507214e+02  0.00000000000e+00 0.0000e+00 -1.0000e+00
       -3  1    6    6    0  504 +1.54892176052e+01 +8.89281677255e+01 -2.80956788882e+02  2.95101426794e+02  0.00000000000e+00 0.0000e+00 1.0000e+00
        1  1    1    2  502    0 -2.72846483446e+02 +3.04318281836e+02 -3.46753212446e+02  5.35996838172e+02  0.00000000000e+00 0.0000e+00 -1.0000e+00
       -2  1    1    2    0  502 +2.85545321454e+02 -4.36456401308e+02 -6.82219118077e+00  5.21609876383e+02  0.00000000000e+00 0.0000e+00 1.0000e+00
#  0.1300000e+05  0.1300000e+05  0.1300000e+05  0.1300000e+05
<mgrwt>
<rscale>  2 0.27465335e+03</rscale>
<asrwt>0</asrwt>
<pdfrwt beam="1">  1        2 0.23411688e+00 0.21392380e+03</pdfrwt>
<pdfrwt beam="2">  1       -1 0.63611753e-01 0.11213059e+03</pdfrwt>
<totfact> 0.54834525e-01</totfact>
</mgrwt>
<clustering>
<clus scale="  112.131">  1  3  2 -1</clus>
<clus scale="  213.924">  2  4  1 -1</clus>
<clus scale="  487.055">  2  5  1 -1</clus>
<clus scale="  487.055">  2  3  1 -1</clus>
</clustering>
<rwgt>
  <wgt id="1">4.87532e-06</wgt>
  <wgt id="2">3.26324e-06</wgt>
  <wgt id="3">2.34156e-06</wgt>
  <wgt id="4">4.22074e-06</wgt>
  <wgt id="5">2.8251e-06</wgt>
  <wgt id="6">2.02717e-06</wgt>
  <wgt id="7">3.69208e-06</wgt>
  <wgt id="8">2.47125e-06</wgt>
  <wgt id="9">1.77327e-06</wgt>
  <wgt id="10">2.8251e-06</wgt>
  <wgt id="11">2.8251e-06</wgt>
  <wgt id="12">2.8251e-06</wgt>
  <wgt id="13">2.8251e-06</wgt>
  <wgt id="14">2.82987e-06</wgt>
  <wgt id="15">2.8212e-06</wgt>
  <wgt id="16">2.8326e-06</wgt>
  <wgt id="17">2.81653e-06</wgt>
  <wgt id="18">2.80921e-06</wgt>
  <wgt id="19">2.84882e-06</wgt>
  <wgt id="20">2.84782e-06</wgt>
  <wgt id="21">2.80984e-06</wgt>
  <wgt id="22">2.83764e-06</wgt>
  <wgt id="23">2.80737e-06</wgt>
  <wgt id="24">2.89048e-06</wgt>
  <wgt id="25">2.78528e-06</wgt>
  <wgt id="26">2.82642e-06</wgt>
  <wgt id="27">2.82341e-06</wgt>
  <wgt id="28">2.85875e-06</wgt>
  <wgt id="29">2.81306e-06</wgt>
  <wgt id="30">2.82211e-06</wgt>
  <wgt id="31">2.82839e-06</wgt>
  <wgt id="32">2.84052e-06</wgt>
  <wgt id="33">2.81042e-06</wgt>
  <wgt id="34">2.80547e-06</wgt>
  <wgt id="35">2.86082e-06</wgt>
  <wgt id="36">2.83666e-06</wgt>
  <wgt id="37">2.81472e-06</wgt>
  <wgt id="38">2.85335e-06</wgt>
  <wgt id="39">2.81252e-06</wgt>
  <wgt id="40">2.8182e-06</wgt>
  <wgt id="41">2.83279e-06</wgt>
  <wgt id="42">2.84483e-06</wgt>
  <wgt id="43">2.78077e-06</wgt>
  <wgt id="44">2.8343e-06</wgt>
  <wgt id="45">2.82196e-06</wgt>
  <wgt id="46">2.82277e-06</wgt>
  <wgt id="47">2.82774e-06</wgt>
  <wgt id="48">2.82775e-06</wgt>
  <wgt id="49">2.82744e-06</wgt>
  <wgt id="50">2.83032e-06</wgt>
  <wgt id="51">2.82505e-06</wgt>
  <wgt id="52">2.82926e-06</wgt>
  <wgt id="53">2.82418e-06</wgt>
</rwgt>
</event>
<event>
 10      0 +2.8251000e-06 2.09438000e+02 7.54677100e-03 1.07910000e-01
       -1 -1    0    0    0  501 +0.00000000000e+00 +0.00000000000e+00 +7.87512329240e+02  7.87512329240e+02  0.00000000000e+00 0.0000e+00 1.0000e+00
        2 -1    0    0  501    0 +0.00000000000e+00 +0.00000000000e+00 -6.60006675090e+02  6.60006675090e+02  0.00000000000e+00 0.0000e+00 -1.0000e+00
       24  2    1    2    0    0 -1.85200017173e+01 +1.04507374508e+02 -2.75600468916e+02  3.06441865715e+02  8.17692901158e+01 0.0000e+00 0.0000e+00
       14  1    3    3    0    0 +4.51656338634e+00 +7.68909789666e+01 -9.50286428130e+01  1.22323607477e+02  0.00000000000e+00 0.0000e+00 -1.0000e+00
      -13  1    3    3    0    0 -2.30365651036e+01 +2.76163955410e+01 -1.80571826103e+02  1.84118258238e+02  0.00000000000e+00 0.0000e+00 1.0000e+00
       24  2    1    2    0    0 +2.57435570836e+01 -3.51010316517e+01 +1.22627638764e+02  1.53351644574e+02  8.11441676909e+01 0.0000e+00 0.0000e+00
        2  1    6    6  503    0 +2.60173031192e+00 +2.26426828214e+01 +1.04357856043e+01  2.50672237623e+01  0.00000000000e+00 0.0000e+00 -1.0000e+00
       -1  1    6    6    0  503 +2.31418267717e+01 -5.77437144731e+01 +1.12191853160e+02  1.28284420812e+02  0.00000000000e+00 0.0000e+00 1.0000e+00
        1  1    1    2  502    0 -3.15305034523e+01 +2.49681893031e+02 -2.58582443124e+02  3.60832509965e+02  0.00000000000e+00 0.0000e+00 -1.0000e+00
       -2  1    1    2    0  502 +2.43069480860e+01 -3.19088235887e+02 +5.39060927426e+02  6.26892984076e+02  0.00000000000e+00 0.0000e+00 1.0000e+00
#  0.1300000e+05  0.1300000e+05  0.1300000e+05  0.1300000e+05
<mgrwt>
<rscale>  2 0.19138793e+03</rscale>
<asrwt>0</asrwt>
<pdfrwt beam="1">  1        2 0.10153949e+00 0.13073733e+03</pdfrwt>
<pdfrwt beam="2">  1       -1 0.12115574e+00 0.91166579e+02</pdfrwt>
<totfact> 0.55787511e-01</totfact>
</mgrwt>
<clustering>
<clus scale="   91.167">  1  4  2 -1</clus>
<clus scale="  130.737">  2  3  1 -1</clus>
<clus scale="  335.515">  2  5  1 -1</clus>
<clus scale="  335.515">  2  3  1 -1</clus>
</clustering>
<rwgt>
  <wgt id="1">5.01197e-06</wgt>
  <wgt id="2">3.27773e-06</wgt>
  <wgt id="3">2.31554e-06</wgt>
  <wgt id="4">4.31986e-06</wgt>
  <wgt id="5">2.8251e-06</wgt>
  <wgt id="6">1.99579e-06</wgt>
  <wgt id="7">3.77653e-06</wgt>
  <wgt id="8">2.46978e-06</wgt>
  <wgt id="9">1.74477e-06</wgt>
  <wgt id="10">2.8251e-06</wgt>
  <wgt id="11">2.8251e-06</wgt>
  <wgt id="12">2.8251e-06</wgt>
  <wgt id="13">2.8251e-06</wgt>
  <wgt id="14">2.82912e-06</wgt>
  <wgt id="15">2.82184e-06</wgt>
  <wgt id="16">2.84176e-06</wgt>
  <wgt id="17">2.80603e-06</wgt>
  <wgt id="18">2.80968e-06</wgt>
  <wgt id="19">2.84804e-06</wgt>
  <wgt id="20">2.85375e-06</wgt>
  <wgt id="21">2.80561e-06</wgt>
  <wgt id="22">2.83826e-06</wgt>
  <wgt id="23">2.80616e-06</wgt>
  <wgt id="24">2.89499e-06</wgt>
  <wgt id="25">2.78221e-06</wgt>
  <wgt id="26">2.82543e-06</wgt>
  <wgt id="27">2.82473e-06</wgt>
  <wgt id="28">2.86082e-06</wgt>
  <wgt id="29">2.81237e-06</wgt>
  <wgt id="30">2.81325e-06</wgt>
  <wgt id="31">2.83985e-06</wgt>
  <wgt id="32">2.84429e-06</wgt>
  <wgt id="33">2.80666e-06</wgt>
  <wgt id="34">2.81735e-06</wgt>
  <wgt id="35">2.83886e-06</wgt>
  <wgt id="36">2.79772e-06</wgt>
  <wgt id="37">2.83769e-06</wgt>
  <wgt id="38">2.91135e-06</wgt>
  <wgt id="39">2.78575e-06</wgt>
  <wgt id="40">2.81476e-06</wgt>
  <wgt id="41">2.83621e-06</wgt>
  <wgt id="42">2.83054e-06</wgt>
  <wgt id="43">2.80001e-06</wgt>
  <wgt id="44">2.8585e-06</wgt>
  <wgt id="45">2.81167e-06</wgt>
  <wgt id="46">2.85023e-06</wgt>
  <wgt id="47">2.81008e-06</wgt>
  <wgt id="48">2.80763e-06</wgt>
  <wgt id="49">2.83459e-06</wgt>
  <wgt id="50">2.81628e-06</wgt>
  <wgt id="51">2.84416e-06</wgt>
  <wgt id="52">2.79484e-06</wgt>
  <wgt id="53">2.83351e-06</wgt>
</rwgt>
</event>
<event>
 12      0 +2.8251000e-06 4.15268400e+02 7.54677100e-03 9.81595400e-02
        2 -1    0    0  503    0 +0.00000000000e+00 +0.00000000000e+00 +1.42777163410e+03  1.42777163410e+03  0.00000000000e+00 0.0000e+00 1.0000e+00
       -1 -1    0    0    0  501 +0.00000000000e+00 +0.00000000000e+00 -4.59781044740e+02  4.59781044740e+02  0.00000000000e+00 0.0000e+00 1.0000e+00
       24  2    1    2    0    0 -3.80090629874e+01 +1.19613298292e+02 +2.38007310299e+02  2.80942831808e+02  8.08044862075e+01 0.0000e+00 0.0000e+00
       12  1    3    3    0    0 +1.06987360271e+01 +8.48372508242e+01 +1.70398430096e+02  1.90650064409e+02  0.00000000000e+00 0.0000e+00 -1.0000e+00
      -11  1    3    3    0    0 -4.87077990145e+01 +3.47760474680e+01 +6.76088802028e+01  9.02927673992e+01  0.00000000000e+00 0.0000e+00 1.0000e+00
       24  2    1    2    0    0 -3.32721286611e+02 +1.75404091695e+02 -7.50868588583e+01  3.91400320759e+02  7.80136191282e+01 0.0000e+00 0.0000e+00
       12  1    6    6    0    0 -4.72635317307e+01 +5.95693971655e+01 -1.66114631239e+01  7.78350513421e+01  0.00000000000e+00 0.0000e+00 -1.0000e+00
      -11  1    6    6    0    0 -2.85457754881e+02 +1.15834694530e+02 -5.84753957344e+01  3.13565269417e+02  0.00000000000e+00 0.0000e+00 1.0000e+00
        2  1    1    2  502    0 +7.04651703363e+01 -3.97947970018e+01 +2.36236225780e+02  2.49712876060e+02  0.00000000000e+00 0.0000e+00 1.0000e+00
        3  1    1    2  503    0 +2.68292549129e+01 -4.86383248031e+01 +4.65494544280e+01  7.24730795977e+01  0.00000000000e+00 0.0000e+00 -1.0000e+00
       -2  1    1    2    0  502 +3.74267253604e+02 -2.98737791769e+02 +1.58474979115e+02  5.04415071500e+02  0.00000000000e+00 0.0000e+00 1.0000e+00
       -4  1    1    2    0  501 -1.00831329254e+02 +9.21535235861e+01 +3.63809478596e+02  3.88608499115e+02  0.00000000000e+00 0.0000e+00 1.0000e+00
#  0.1300000e+05  0.1300000e+05  0.8092568e+02  0.1300000e+05  0.1300000e+05  0.1121560e+03
<mgrwt>
<rscale>  2 0.39501567e+03</rscale>
<asrwt>  2 0.80925683e+02 0.11215597e+03</asrwt>
<pdfrwt beam="1">  2        2       21 0.21965717e+00 0.17905729e+00 0.80925683e+02 0.41526844e+03</pdfrwt>
<pdfrwt beam="2">  1       -1 0.70735545e-01 0.41526844e+03</pdfrwt>
<totfact> 0.60471765e-03</totfact>
</mgrwt>
<clustering>
<clus scale="   55.547">  3  6 -1 -1</clus>
<clus scale="   80.926">  1  5  2 -1</clus>
<clus scale="  112.156">  3  8 -1 -1</clus>
<clus scale="  339.993">  1  3  2 -1</clus>
<clus scale="  407.407">  1  7  2 -1</clus>
<clus scale="  415.268">  1  3  2 -1</clus>
</clustering>
<rwgt>
  <wgt id="1">5.29204e-06</wgt>
  <wgt id="2">3.61765e-06</wgt>
  <wgt id="3">2.63337e-06</wgt>
  <wgt id="4">4.13267e-06</wgt>
  <wgt id="5">2.8251e-06</wgt>
  <wgt id="6">2.05645e-06</wgt>
  <wgt id="7">3.32442e-06</wgt>
  <wgt id="8">2.27258e-06</wgt>
  <wgt id="9">1.65426e-06</wgt>
  <wgt id="10">4.56033e-06</wgt>
  <wgt id="11">2.8251e-06</wgt>
  <wgt id="12">1.92672e-06</wgt>
  <wgt id="13">2.8251e-06</wgt>
  <wgt id="14">2.8292e-06</wgt>
  <wgt id="15">2.82162e-06</wgt>
  <wgt id="16">2.83185e-06</wgt>
  <wgt id="17">2.81744e-06</wgt>
  <wgt id="18">2.80874e-06</wgt>
  <wgt id="19">2.84933e-06</wgt>
  <wgt id="20">2.84842e-06</wgt>
  <wgt id="21">2.8095e-06</wgt>
  <wgt id="22">2.83829e-06</wgt>
  <wgt id="23">2.80644e-06</wgt>
  <wgt id="24">2.89509e-06</wgt>
  <wgt id="25">2.78247e-06</wgt>
  <wgt id="26">2.82484e-06</wgt>
  <wgt id="27">2.82548e-06</wgt>
  <wgt id="28">2.86188e-06</wgt>
  <wgt id="29">2.81184e-06</wgt>
  <wgt id="30">2.82206e-06</wgt>
  <wgt id="31">2.82886e-06</wgt>
  <wgt id="32">2.84166e-06</wgt>
  <wgt id="33">2.80916e-06</wgt>
  <wgt id="34">2.80673e-06</wgt>
  <wgt id="35">2.85991e-06</wgt>
  <wgt id="36">2.83179e-06</wgt>
  <wgt id="37">2.81711e-06</wgt>
  <wgt id="38">2.86238e-06</wgt>
  <wgt id="39">2.8084e-06</wgt>
  <wgt id="40">2.81676e-06</wgt>
  <wgt id="41">2.83394e-06</wgt>
  <wgt id="42">2.84372e-06</wgt>
  <wgt id="43">2.78243e-06</wgt>
  <wgt id="44">2.83777e-06</wgt>
  <wgt id="45">2.82063e-06</wgt>
  <wgt id="46">2.82661e-06</wgt>
  <wgt id="47">2.82521e-06</wgt>
  <wgt id="48">2.82531e-06</wgt>
  <wgt id="49">2.82864e-06</wgt>
  <wgt id="50">2.81735e-06</wgt>
  <wgt id="51">2.84026e-06</wgt>
  <wgt id="52">2.82415e-06</wgt>
  <wgt id="53">2.82554e-06</wgt>
</rwgt>
</event>
<event>
 11      0 +2.8251000e-06 5.02669400e+02 7.54677100e-03 1.00392800e-01
        2 -1    0    0  503    0 +0.00000000000e+00 +0.00000000000e+00 +1.85401192570e+02  1.85401192570e+02  0.00000000000e+00 0.0000e+00 -1.0000e+00
        2 -1    0    0  502    0 +0.00000000000e+00 +0.00000000000e+00 -4.12204005680e+03  4.12204005680e+03  0.00000000000e+00 0.0000e+00 -1.0000e+00
       24  2    1    2    0    0 +5.46807645920e+01 -1.35939298618e+02 -2.66719955289e+01  1.70329521821e+02  8.26515077476e+01 0.0000e+00 0.0000e+00
       14  1    3    3    0    0 +6.94652281463e+01 -1.30988667430e+02 -1.17252907520e+01  1.48731070593e+02  0.00000000000e+00 0.0000e+00 -1.0000e+00
      -13  1    3    3    0    0 -1.47844635544e+01 -4.95063118851e+00 -1.49467047769e+01  2.15984512278e+01  0.00000000000e+00 0.0000e+00 1.0000e+00
       24  2    1    2    0    0 +4.12258775070e+01 +1.42011275149e+01 -2.99003146134e+03  2.99175371533e+03  9.16564692715e+01 0.0000e+00 0.0000e+00
        4  1    6    6  504    0 +5.32703955373e+01 +1.84503048358e+01 -2.92140343479e+03  2.92194732628e+03  0.00000000000e+00 0.0000e+00 -1.0000e+00
       -3  1    6    6    0  504 -1.20445180303e+01 -4.24917732095e+00 -6.86280265559e+01  6.98063890446e+01  0.00000000000e+00 0.0000e+00 1.0000e+00
       21  1    1    2  503  501 +5.59294563850e+01 -1.07191694684e+02 -3.13370660068e+01  1.24900661354e+02  0.00000000000e+00 0.0000e+00 -1.0000e+00
        1  1    1    2  501    0 -1.13962417352e+02 +2.67373821226e+02 -2.61286178594e+02  3.90828171925e+02  0.00000000000e+00 0.0000e+00 -1.0000e+00
        1  1    1    2  502    0 -3.78736811321e+01 -3.84439554385e+01 -6.27312162757e+02  6.29629178942e+02  0.00000000000e+00 0.0000e+00 -1.0000e+00
#  0.1300000e+05  0.1300000e+05  0.1212677e+03  0.1300000e+05  0.1300000e+05
<mgrwt>
<rscale>  2 0.33037569e+03</rscale>
<asrwt>  1 0.12126770e+03</asrwt>
<pdfrwt beam="1">  2        2        2 0.28523260e-01 0.19363586e-01 0.12126770e+03 0.50266938e+03</pdfrwt>
<pdfrwt beam="2">  1        2 0.63416001e+00 0.93796158e+02</pdfrwt>
<totfact> 0.13953730e-02</totfact>
</mgrwt>
<clustering>
<clus scale="   59.122">  3  7 -1 -1</clus>
<clus scale="   93.796">  2  4  1 -1</clus>
<clus scale="  121.268">  1  5  2 -1</clus>
<clus scale="  234.831">  2  6  1 -1</clus>
<clus scale="  502.669">  1  3  2 -1</clus>
</clustering>
<rwgt>
  <wgt id="1">5.67842e-06</wgt>
  <wgt id="2">3.84285e-06</wgt>
  <wgt id="3">2.77814e-06</wgt>
  <wgt id="4">4.17453e-06</wgt>
  <wgt id="5">2.8251e-06</wgt>
  <wgt id="6">2.04237e-06</wgt>
  <wgt id="7">3.23224e-06</wgt>
  <wgt id="8">2.18741e-06</wgt>
  <wgt id="9">1.58136e-06</wgt>
  <wgt id="10">3.5525e-06</wgt>
  <wgt id="11">2.8251e-06</wgt>
  <wgt id="12">2.34831e-06</wgt>
  <wgt id="13">2.8251e-06</wgt>
  <wgt id="14">2.82937e-06</wgt>
  <wgt id="15">2.82154e-06</wgt>
  <wgt id="16">2.81232e-06</wgt>
  <wgt id="17">2.83925e-06</wgt>
  <wgt id="18">2.80977e-06</wgt>
  <wgt id="19">2.8478e-06</wgt>
  <wgt id="20">2.81782e-06</wgt>
  <wgt id="21">2.82995e-06</wgt>
  <wgt id="22">2.83361e-06</wgt>
  <wgt id="23">2.81287e-06</wgt>
  <wgt id="24">2.87208e-06</wgt>
  <wgt id="25">2.79635e-06</wgt>
  <wgt id="26">2.82369e-06</wgt>
  <wgt id="27">2.82702e-06</wgt>
  <wgt id="28">2.80264e-06</wgt>
  <wgt id="29">2.83264e-06</wgt>
  <wgt id="30">2.82332e-06</wgt>
  <wgt id="31">2.82679e-06</wgt>
  <wgt id="32">2.80868e-06</wgt>
  <wgt id="33">2.84081e-06</wgt>
  <wgt id="34">2.79765e-06</wgt>
  <wgt id="35">2.87432e-06</wgt>
  <wgt id="36">2.84616e-06</wgt>
  <wgt id="37">2.81248e-06</wgt>
  <wgt id="38">2.82001e-06</wgt>
  <wgt id="39">2.8275e-06</wgt>
  <wgt id="40">2.85411e-06</wgt>
  <wgt id="41">2.79616e-06</wgt>
  <wgt id="42">2.83707e-06</wgt>
  <wgt id="43">2.80109e-06</wgt>
  <wgt id="44">2.83596e-06</wgt>
  <wgt id="45">2.82074e-06</wgt>
  <wgt id="46">2.82476e-06</wgt>
  <wgt id="47">2.82564e-06</wgt>
  <wgt id="48">2.79891e-06</wgt>
  <wgt id="49">2.84569e-06</wgt>
  <wgt id="50">2.8079e-06</wgt>
  <wgt id="51">2.8433e-06</wgt>
  <wgt id="52">2.81861e-06</wgt>
  <wgt id="53">2.82727e-06</wgt>
</rwgt>
</event>
<event>
 10      0 +2.8251000e-06 1.61606900e+02 7.54677100e-03 1.10500000e-01
        2 -1    0    0  502    0 +0.00000000000e+00 +0.00000000000e+00 +4.87349403180e+02  4.87349403180e+02  0.00000000000e+00 0.0000e+00 -1.0000e+00
        2 -1    0    0  501    0 +0.00000000000e+00 +0.00000000000e+00 -4.11667912280e+02  4.11667912280e+02  0.00000000000e+00 0.0000e+00 -1.0000e+00
       24  2    1    2    0    0 -8.92384477359e+01 -2.07912847260e+01 +9.79062296839e+01  1.56480002625e+02  8.06509971156e+01 0.0000e+00 0.0000e+00
       14  1    3    3    0    0 -4.70682442123e+01 -3.98543344055e+01 +9.06418523030e+01  1.09634542791e+02  0.00000000000e+00 0.0000e+00 -1.0000e+00
      -13  1    3    3    0    0 -4.21702035236e+01 +1.90630496795e+01 +7.26437738088e+00  4.68454598337e+01  0.00000000000e+00 0.0000e+00 1.0000e+00
       24  2    1    2    0    0 +6.77515447155e+01 -2.67642632817e+01 +5.74977207449e+01  1.22407622567e+02  7.98187983585e+01 0.0000e+00 0.0000e+00
        2  1    6    6  503    0 +4.67877022280e+01 -4.93974782243e+01 +1.46306466394e+01  6.95935036895e+01  0.00000000000e+00 0.0000e+00 -1.0000e+00
       -1  1    6    6    0  503 +2.09638424875e+01 +2.26332149426e+01 +4.28670741055e+01  5.28141188779e+01  0.00000000000e+00 0.0000e+00 1.0000e+00
        1  1    1    2  501    0 +1.00577539070e+01 +2.59247218854e+02 +1.56291152495e+02  3.02881500335e+02  0.00000000000e+00 0.0000e+00 -1.0000e+00
        1  1    1    2  502    0 +1.14291491133e+01 -2.11691670846e+02 -2.36013612024e+02  3.17248189933e+02  0.00000000000e+00 0.0000e+00 -1.0000e+00
#  0.1300000e+05  0.1300000e+05  0.1300000e+05  0.1300000e+05
<mgrwt>
<rscale>  2 0.16139773e+03</rscale>
<asrwt>0</asrwt>
<pdfrwt beam="1">  1        2 0.74976831e-01 0.10856951e+03</pdfrwt>
<pdfrwt beam="2">  1        2 0.63333525e-01 0.10913356e+03</pdfrwt>
<totfact> 0.95422070e+00</totfact>
</mgrwt>
<clustering>
<clus scale="  108.570">  1  4  2 -1</clus>
<clus scale="  109.134">  2  3  1 -1</clus>
<clus scale="  239.310">  1  5  2 -1</clus>
<clus scale="  239.310">  1  3  2 -1</clus>
</clustering>
<rwgt>
  <wgt id="1">4.4571e-06</wgt>
  <wgt id="2">2.88001e-06</wgt>
  <wgt id="3">2.01847e-06</wgt>
  <wgt id="4">4.37212e-06</wgt>
  <wgt id="5">2.8251e-06</wgt>
  <wgt id="6">1.97998e-06</wgt>
  <wgt id="7">4.23617e-06</wgt>
  <wgt id="8">2.73725e-06</wgt>
  <wgt id="9">1.91842e-06</wgt>
  <wgt id="10">2.8251e-06</wgt>
  <wgt id="11">2.8251e-06</wgt>
  <wgt id="12">2.8251e-06</wgt>
  <wgt id="13">2.8251e-06</wgt>
  <wgt id="14">2.82804e-06</wgt>
  <wgt id="15">2.82265e-06</wgt>
  <wgt id="16">2.82814e-06</wgt>
  <wgt id="17">2.82153e-06</wgt>
  <wgt id="18">2.81348e-06</wgt>
  <wgt id="19">2.84229e-06</wgt>
  <wgt id="20">2.8111e-06</wgt>
  <wgt id="21">2.83453e-06</wgt>
  <wgt id="22">2.83062e-06</wgt>
  <wgt id="23">2.81719e-06</wgt>
  <wgt id="24">2.85718e-06</wgt>
  <wgt id="25">2.80526e-06</wgt>
  <wgt id="26">2.82286e-06</wgt>
  <wgt id="27">2.82819e-06</wgt>
  <wgt id="28">2.86057e-06</wgt>
  <wgt id="29">2.81214e-06</wgt>
  <wgt id="30">2.82943e-06</wgt>
  <wgt id="31">2.81934e-06</wgt>
  <wgt id="32">2.83111e-06</wgt>
  <wgt id="33">2.81939e-06</wgt>
  <wgt id="34">2.79491e-06</wgt>
  <wgt id="35">2.88026e-06</wgt>
  <wgt id="36">2.83407e-06</wgt>
  <wgt id="37">2.82229e-06</wgt>
  <wgt id="38">2.81766e-06</wgt>
  <wgt id="39">2.82862e-06</wgt>
  <wgt id="40">2.82542e-06</wgt>
  <wgt id="41">2.82529e-06</wgt>
  <wgt id="42">2.84467e-06</wgt>
  <wgt id="43">2.78719e-06</wgt>
  <wgt id="44">2.83782e-06</wgt>
  <wgt id="45">2.82002e-06</wgt>
  <wgt id="46">2.82639e-06</wgt>
  <wgt id="47">2.82497e-06</wgt>
  <wgt id="48">2.78772e-06</wgt>
  <wgt id="49">2.84296e-06</wgt>
  <wgt id="50">2.81254e-06</wgt>
  <wgt id="51">2.83975e-06</wgt>
  <wgt id="52">2.82284e-06</wgt>
  <wgt id="53">2.8254e-06</wgt>
</rwgt>
</event>
<event>
 11      0 +2.8251000e-06 9.54090300e+02 7.54677100e-03 9.20527700e-02
       21 -1    0    0  501  503 +0.00000000000e+00 +0.00000000000e+00 +6.08498633340e+02  6.08498633340e+02  0.00000000000e+00 0.0000e+00 1.0000e+00
        2 -1    0    0  502    0 +0.00000000000e+00 +0.00000000000e+00 -1.78863787900e+03  1.78863787900e+03  0.00000000000e+00 0.0000e+00 -1.0000e+00
       24  2    1    2    0    0 +2.83865409378e+02 +1.28514672398e+02 -5.11303625916e+01  3.25924166210e+02  8.07258104833e+01 0.0000e+00 0.0000e+00
        2  1    3    3  504    0 +1.38803183504e+01 -1.10875618616e+01 -5.31715818408e+00  1.85437169062e+01  0.00000000000e+00 0.0000e+00 -1.0000e+00
       -1  1    3    3    0  504 +2.69985091027e+02 +1.39602234260e+02 -4.58132044075e+01  3.07380449304e+02  0.00000000000e+00 0.0000e+00 1.0000e+00
       24  2    1    2    0    0 -1.02201207426e+02 -9.44209771485e+01 -1.84931272169e+02  2.46261873244e+02  8.41720087827e+01 0.0000e+00 0.0000e+00
       16  1    6    6    0    0 -6.72604345751e+01 -1.47377634957e+01 -4.76690618852e+01  8.37466846693e+01  0.00000000000e+00 0.0000e+00 -1.0000e+00
      -15  1    6    6    0    0 -3.49407728514e+01 -7.96832136528e+01 -1.37262210284e+02  1.62515188575e+02  1.77700000000e+00 0.0000e+00 1.0000e+00
        1  1    1    2  501    0 -1.51220138359e+02 -1.02184635993e+02 +3.06515688760e+02  3.56736734210e+02  0.00000000000e+00 0.0000e+00 -1.0000e+00
        1  1    1    2  502    0 -3.87668185268e+02 -4.92892324055e+01 -6.95152580552e+02  7.97466714383e+02  0.00000000000e+00 0.0000e+00 -1.0000e+00
       -2  1    1    2    0  503 +3.57224121676e+02 +1.17380173149e+02 -5.55440719108e+02  6.70747024293e+02  0.00000000000e+00 0.0000e+00 1.0000e+00
#  0.1300000e+05  0.1300000e+05  0.1825082e+03  0.1300000e+05  0.4090294e+03
<mgrwt>
<rscale>  1 0.67342719e+03</rscale>
<asrwt>  2 0.18250816e+03 0.40902944e+03</asrwt>
<pdfrwt beam="1">  2       21       -1 0.93615174e-01 0.41281502e-01 0.18250816e+03 0.95409030e+03</pdfrwt>
<pdfrwt beam="2">  1        2 0.27517506e+00 0.23680679e+03</pdfrwt>
<totfact> 0.11770485e-01</totfact>
</mgrwt>
<clustering>
<clus scale="  182.508">  1  5  2 -1</clus>
<clus scale="  236.807">  2  3  1 -1</clus>
<clus scale="  311.022">  4  6 -1 -1</clus>
<clus scale="  409.029">  4  7 -1 -1</clus>
<clus scale="  954.090">  1  3  2 -1</clus>
</clustering>
<rwgt>
  <wgt id="1">3.8829e-06</wgt>
  <wgt id="2">3.25389e-06</wgt>
  <wgt id="3">2.80257e-06</wgt>
  <wgt id="4">3.37122e-06</wgt>
  <wgt id="5">2.8251e-06</wgt>
  <wgt id="6">2.43325e-06</wgt>
  <wgt id="7">2.96792e-06</wgt>
  <wgt id="8">2.48713e-06</wgt>
  <wgt id="9">2.14216e-06</wgt>
  <wgt id="10">4.22837e-06</wgt>
  <wgt id="11">2.8251e-06</wgt>
  <wgt id="12">2.02502e-06</wgt>
  <wgt id="13">2.8251e-06</wgt>
  <wgt id="14">2.83268e-06</wgt>
  <wgt id="15">2.81883e-06</wgt>
  <wgt id="16">2.81149e-06</wgt>
  <wgt id="17">2.84032e-06</wgt>
  <wgt id="18">2.81756e-06</wgt>
  <wgt id="19">2.83603e-06</wgt>
  <wgt id="20">2.8239e-06</wgt>
  <wgt id="21">2.82587e-06</wgt>
  <wgt id="22">2.82803e-06</wgt>
  <wgt id="23">2.82082e-06</wgt>
  <wgt id="24">2.84043e-06</wgt>
  <wgt id="25">2.8156e-06</wgt>
  <wgt id="26">2.82646e-06</wgt>
  <wgt id="27">2.82309e-06</wgt>
  <wgt id="28">2.84968e-06</wgt>
  <wgt id="29">2.81592e-06</wgt>
  <wgt id="30">2.80329e-06</wgt>
  <wgt id="31">2.85211e-06</wgt>
  <wgt id="32">2.82592e-06</wgt>
  <wgt id="33">2.82416e-06</wgt>
  <wgt id="34">2.83235e-06</wgt>
  <wgt id="35">2.81498e-06</wgt>
  <wgt id="36">2.80703e-06</wgt>
  <wgt id="37">2.83743e-06</wgt>
  <wgt id="38">2.80901e-06</wgt>
  <wgt id="39">2.8334e-06</wgt>
  <wgt id="40">2.82207e-06</wgt>
  <wgt id="41">2.82721e-06</wgt>
  <wgt id="42">2.82466e-06</wgt>
  <wgt id="43">2.8286e-06</wgt>
  <wgt id="44">2.82355e-06</wgt>
  <wgt id="45">2.82582e-06</wgt>
  <wgt id="46">2.82778e-06</wgt>
  <wgt id="47">2.82328e-06</wgt>
  <wgt id="48">2.83868e-06</wgt>
  <wgt id="49">2.82193e-06</wgt>
  <wgt id="50">2.84162e-06</wgt>
  <wgt id="51">2.82475e-06</wgt>
  <wgt id="52">2.83716e-06</wgt>
  <wgt id="53">2.82211e-06</wgt>
</rwgt>
</event>
<event>
 10      0 +2.8251000e-06 2.27251200e+02 7.54677100e-03 1.06165100e-01
        4 -1    0    0  501    0 +0.00000000000e+00 +0.00000000000e+00 +3.77162479850e+02  3.77162479850e+02  0.00000000000e+00 0.0000e+00 -1.0000e+00
        2 -1    0    0  502    0 +0.00000000000e+00 +0.00000000000e+00 -2.77159944960e+02  2.77159944960e+02  0.00000000000e+00 0.0000e+00 -1.0000e+00
       24  2    1    2    0    0 -2.12712869292e+01 +1.96295067495e+01 -2.01372017492e+02  2.18257967256e+02  7.90447067121e+01 0.0000e+00 0.0000e+00
        2  1    3    3  503    0 +2.38845732703e+01 +3.03444466606e+00 -1.29837969353e+02  1.32051425514e+02  0.00000000000e+00 0.0000e+00 -1.0000e+00
       -1  1    3    3    0  503 -4.51558601995e+01 +1.65950620835e+01 -7.15340481392e+01  8.62065417419e+01  0.00000000000e+00 0.0000e+00 1.0000e+00
       24  2    1    2    0    0 +8.54976431277e+00 -1.78447387258e+01 +3.11169371342e+02  3.22340061838e+02  8.17631006891e+01 0.0000e+00 0.0000e+00
        2  1    6    6  504    0 -1.77626944614e+01 -1.06106334098e+01 +2.80602633686e+02  2.81364420081e+02  0.00000000000e+00 0.0000e+00 -1.0000e+00
       -1  1    6    6    0  504 +2.63124587742e+01 -7.23410531600e+00 +3.05667376556e+01  4.09756417567e+01  0.00000000000e+00 0.0000e+00 1.0000e+00
        1  1    1    2  501    0 +1.94129657048e+01 +5.38037190183e+01 -7.49091160615e+00  5.76872358009e+01  0.00000000000e+00 0.0000e+00 -1.0000e+00
        3  1    1    2  502    0 -6.69144308831e+00 -5.55884870420e+01 -2.30390735384e+00  5.60371599148e+01  0.00000000000e+00 0.0000e+00 -1.0000e+00
#  0.1300000e+05  0.1300000e+05  0.1300000e+05  0.1300000e+05
<mgrwt>
<rscale>  2 0.21573524e+03</rscale>
<asrwt>0</asrwt>
<pdfrwt beam="1">  1        2 0.42639992e-01 0.22725116e+03</pdfrwt>
<pdfrwt beam="2">  1        4 0.58024997e-01 0.18457208e+03</pdfrwt>
<totfact> 0.21704401e+00</totfact>
</mgrwt>
<clustering>
<clus scale="   55.666">  3  6 -1 -1</clus>
<clus scale="   56.685">  4  5 -1 -1</clus>
<clus scale="  184.572">  1  3  2 -1</clus>
<clus scale="  227.251">  2  3  1 -1</clus>
</clustering>
<rwgt>
  <wgt id="1">3.93399e-06</wgt>
  <wgt id="2">2.5934e-06</wgt>
  <wgt id="3">1.8419e-06</wgt>
  <wgt id="4">4.28545e-06</wgt>
  <wgt id="5">2.8251e-06</wgt>
  <wgt id="6">2.00646e-06</wgt>
  <wgt id="7">4.4323e-06</wgt>
  <wgt id="8">2.92191e-06</wgt>
  <wgt id="9">2.07521e-06</wgt>
  <wgt id="10">2.8251e-06</wgt>
  <wgt id="11">2.8251e-06</wgt>
  <wgt id="12">2.8251e-06</wgt>
  <wgt id="13">2.8251e-06</wgt>
  <wgt id="14">2.83402e-06</wgt>
  <wgt id="15">2.81781e-06</wgt>
  <wgt id="16">2.83069e-06</wgt>
  <wgt id="17">2.81884e-06</wgt>
  <wgt id="18">2.82148e-06</wgt>
  <wgt id="19">2.83043e-06</wgt>
  <wgt id="20">2.82212e-06</wgt>
  <wgt id="21">2.82713e-06</wgt>
  <wgt id="22">2.82378e-06</wgt>
  <wgt id="23">2.8271e-06</wgt>
  <wgt id="24">2.81695e-06</wgt>
  <wgt id="25">2.83002e-06</wgt>
  <wgt id="26">2.8286e-06</wgt>
  <wgt id="27">2.82037e-06</wgt>
  <wgt id="28">2.83095e-06</wgt>
  <wgt id="29">2.82292e-06</wgt>
  <wgt id="30">2.81175e-06</wgt>
  <wgt id="31">2.84058e-06</wgt>
  <wgt id="32">2.82838e-06</wgt>
  <wgt id="33">2.82196e-06</wgt>
  <wgt id="34">2.84121e-06</wgt>
  <wgt id="35">2.79697e-06</wgt>
  <wgt id="36">2.80358e-06</wgt>
  <wgt id="37">2.83945e-06</wgt>
  <wgt id="38">2.8116e-06</wgt>
  <wgt id="39">2.83146e-06</wgt>
  <wgt id="40">2.81852e-06</wgt>
  <wgt id="41">2.83355e-06</wgt>
  <wgt id="42">2.81612e-06</wgt>
  <wgt id="43">2.83748e-06</wgt>
  <wgt id="44">2.82609e-06</wgt>
  <wgt id="45">2.82475e-06</wgt>
  <wgt id="46">2.82925e-06</wgt>
  <wgt id="47">2.823e-06</wgt>
  <wgt id="48">2.80823e-06</wgt>
  <wgt id="49">2.83248e-06</wgt>
  <wgt id="50">2.85855e-06</wgt>
  <wgt id="51">2.79392e-06</wgt>
  <wgt id="52">2.8236e-06</wgt>
  <wgt id="53">2.82542e-06</wgt>
</rwgt>
</event>
<event>
 10      0 +2.8251000e-06 2.58360100e+02 7.54677100e-03 1.05896000e-01
        2 -1    0    0  502    0 +0.00000000000e+00 +0.00000000000e+00 +7.88365683490e+02  7.88365683490e+02  0.00000000000e+00 0.0000e+00 -1.0000e+00
       -1 -1    0    0    0  501 +0.00000000000e+00 +0.00000000000e+00 -3.51912514800e+02  3.51912514800e+02  0.00000000000e+00 0.0000e+00 1.0000e+00
       24  2    1    2    0    0 +5.88610713719e+01 -4.10644702821e+01 +4.93754468831e+02  5.07320188891e+02  9.18116665927e+01 0.0000e+00 0.0000e+00
        4  1    3    3  503    0 +6.44552523994e+01 -6.52220039845e+01 +3.83082888781e+02  3.93904669993e+02  0.00000000000e+00 0.0000e+00 -1.0000e+00
       -3  1    3    3    0  503 -5.59418102749e+00 +2.41575337024e+01 +1.10671580050e+02  1.13415518898e+02  0.00000000000e+00 0.0000e+00 1.0000e+00
       24  2    1    2    0    0 -1.07593497510e+02 +1.72779280055e+01 -3.16493687489e+02  3.44237620247e+02  8.03517110626e+01 0.0000e+00 0.0000e+00
       14  1    6    6    0    0 -9.27698810968e+00 -3.62655316399e+00 +2.08668349241e+00  1.01768680956e+01  0.00000000000e+00 0.0000e+00 -1.0000e+00
      -13  1    6    6    0    0 -9.83165094000e+01 +2.09044811695e+01 -3.18580370981e+02  3.34060752151e+02  0.00000000000e+00 0.0000e+00 1.0000e+00
        1  1    1    2  502    0 +5.83405971851e+01 +6.34604400541e+01 +1.68747731619e+02  1.89490500179e+02  0.00000000000e+00 0.0000e+00 -1.0000e+00
       -2  1    1    2    0  501 -9.60817104727e+00 -3.96738977775e+01 +9.04446557286e+01  9.92298889730e+01  0.00000000000e+00 0.0000e+00 1.0000e+00
#  0.1300000e+05  0.1300000e+05  0.9325926e+02  0.1300000e+05
<mgrwt>
<rscale>  2 0.21983572e+03</rscale>
<asrwt>0</asrwt>
<pdfrwt beam="1">  1        2 0.12128703e+00 0.25836006e+03</pdfrwt>
<pdfrwt beam="2">  1       -1 0.54140387e-01 0.13543065e+03</pdfrwt>
<totfact> 0.20252496e+00</totfact>
</mgrwt>
<clustering>
<clus scale="   40.818">  3  6 -1 -1</clus>
<clus scale="   93.259">  3  5 -1 -1</clus>
<clus scale="  135.431">  2  4  1 -1</clus>
<clus scale="  258.360">  1  3  2 -1</clus>
</clustering>
<rwgt>
  <wgt id="1">4.57078e-06</wgt>
  <wgt id="2">3.01694e-06</wgt>
  <wgt id="3">2.14447e-06</wgt>
  <wgt id="4">4.28013e-06</wgt>
  <wgt id="5">2.8251e-06</wgt>
  <wgt id="6">2.00811e-06</wgt>
  <wgt id="7">3.9888e-06</wgt>
  <wgt id="8">2.63281e-06</wgt>
  <wgt id="9">1.87142e-06</wgt>
  <wgt id="10">2.8251e-06</wgt>
  <wgt id="11">2.8251e-06</wgt>
  <wgt id="12">2.8251e-06</wgt>
  <wgt id="13">2.8251e-06</wgt>
  <wgt id="14">2.82975e-06</wgt>
  <wgt id="15">2.82113e-06</wgt>
  <wgt id="16">2.83834e-06</wgt>
  <wgt id="17">2.80993e-06</wgt>
  <wgt id="18">2.81024e-06</wgt>
  <wgt id="19">2.84684e-06</wgt>
  <wgt id="20">2.8404e-06</wgt>
  <wgt id="21">2.81468e-06</wgt>
  <wgt id="22">2.83559e-06</wgt>
  <wgt id="23">2.81008e-06</wgt>
  <wgt id="24">2.8812e-06</wgt>
  <wgt id="25">2.79069e-06</wgt>
  <wgt id="26">2.82504e-06</wgt>
  <wgt id="27">2.82487e-06</wgt>
  <wgt id="28">2.85522e-06</wgt>
  <wgt id="29">2.8142e-06</wgt>
  <wgt id="30">2.82356e-06</wgt>
  <wgt id="31">2.82614e-06</wgt>
  <wgt id="32">2.84123e-06</wgt>
  <wgt id="33">2.80947e-06</wgt>
  <wgt id="34">2.8087e-06</wgt>
  <wgt id="35">2.85466e-06</wgt>
  <wgt id="36">2.84636e-06</wgt>
  <wgt id="37">2.80997e-06</wgt>
  <wgt id="38">2.8431e-06</wgt>
  <wgt id="39">2.81668e-06</wgt>
  <wgt id="40">2.81634e-06</wgt>
  <wgt id="41">2.83469e-06</wgt>
  <wgt id="42">2.84506e-06</wgt>
  <wgt id="43">2.77883e-06</wgt>
  <wgt id="44">2.8351e-06</wgt>
  <wgt id="45">2.82133e-06</wgt>
  <wgt id="46">2.82173e-06</wgt>
  <wgt id="47">2.82839e-06</wgt>
  <wgt id="48">2.81774e-06</wgt>
  <wgt id="49">2.82963e-06</wgt>
  <wgt id="50">2.82923e-06</wgt>
  <wgt id="51">2.82338e-06</wgt>
  <wgt id="52">2.8284e-06</wgt>
  <wgt id="53">2.82402e-06</wgt>
</rwgt>
</event>
<event>
 11      0 +2.8251000e-06 3.47792200e+02 7.54677100e-03 1.03358700e-01
       -1 -1    0    0    0  501 +0.00000000000e+00 +0.00000000000e+00 +3.30064616300e+02  3.30064616300e+02  0.00000000000e+00 0.0000e+00 1.0000e+00
        2 -1    0    0  503    0 +0.00000000000e+00 +0.00000000000e+00 -1.65124574130e+03  1.65124574130e+03  0.00000000000e+00 0.0000e+00 -1.0000e+00
       24  2    1    2    0    0 +7.98212571875e+01 -2.05609199278e+01 -1.67169975322e+02  2.03289415522e+02  8.11578787713e+01 0.0000e+00 0.0000e+00
       12  1    3    3    0    0 -9.53519519058e+00 +5.81868989874e-02 -6.62292968775e+01  6.69122044020e+01  0.00000000000e+00 0.0000e+00 -1.0000e+00
      -11  1    3    3    0    0 +8.93564523781e+01 -2.06191068268e+01 -1.00940678445e+02  1.36377211120e+02  0.00000000000e+00 0.0000e+00 1.0000e+00
       24  2    1    2    0    0 -1.21227403005e+01 -8.33479118772e+01 -9.58630420872e+01  1.50918846413e+02  8.05787820572e+01 0.0000e+00 0.0000e+00
        2  1    6    6  504    0 -3.36615733705e+01 -8.72498996418e+01 -8.54528600706e+01  1.26680060797e+02  0.00000000000e+00 0.0000e+00 -1.0000e+00
       -1  1    6    6    0  504 +2.15388330700e+01 +3.90198776466e+00 -1.04101820166e+01  2.42387856162e+01  0.00000000000e+00 0.0000e+00 1.0000e+00
       21  1    1    2  503  501 +1.08836832273e+02 +1.23899080360e+01 -1.38150127170e+02  1.76307752290e+02  0.00000000000e+00 0.0000e+00 -1.0000e+00
        1  1    1    2  502    0 -1.64845481815e+01 -5.99769092348e+01 -1.13865112496e+03  1.14034878627e+03  0.00000000000e+00 0.0000e+00 -1.0000e+00
       -2  1    1    2    0  502 -1.60050800979e+02 +1.51495833004e+02 +2.18653144538e+02  3.10445557108e+02  0.00000000000e+00 0.0000e+00 1.0000e+00
#  0.1300000e+05  0.1300000e+05  0.1095398e+03  0.1300000e+05  0.1300000e+05
<mgrwt>
<rscale>  2 0.26380169e+03</rscale>
<asrwt>  1 0.10953979e+03</asrwt>
<pdfrwt beam="1">  2        2        2 0.25403781e+00 0.21516452e+00 0.10953979e+03 0.34779216e+03</pdfrwt>
<pdfrwt beam="2">  1       -1 0.50779172e-01 0.11512004e+03</pdfrwt>
<totfact> 0.79657553e-02</totfact>
</mgrwt>
<clustering>
<clus scale="   62.215">  3  6 -1 -1</clus>
<clus scale="  109.540">  2  5  1 -1</clus>
<clus scale="  115.120">  1  4  2 -1</clus>
<clus scale="  178.866">  1  7  2 -1</clus>
<clus scale="  347.792">  2  3  1 -1</clus>
</clustering>
<rwgt>
  <wgt id="1">4.72121e-06</wgt>
  <wgt id="2">3.15234e-06</wgt>
  <wgt id="3">2.25822e-06</wgt>
  <wgt id="4">4.2311e-06</wgt>
  <wgt id="5">2.8251e-06</wgt>
  <wgt id="6">2.02379e-06</wgt>
  <wgt id="7">3.81055e-06</wgt>
  <wgt id="8">2.5443e-06</wgt>
  <wgt id="9">1.82264e-06</wgt>
  <wgt id="10">3.56707e-06</wgt>
  <wgt id="11">2.8251e-06</wgt>
  <wgt id="12">2.34199e-06</wgt>
  <wgt id="13">2.8251e-06</wgt>
  <wgt id="14">2.83012e-06</wgt>
  <wgt id="15">2.821e-06</wgt>
  <wgt id="16">2.83108e-06</wgt>
  <wgt id="17">2.81822e-06</wgt>
  <wgt id="18">2.80943e-06</wgt>
  <wgt id="19">2.84841e-06</wgt>
  <wgt id="20">2.84405e-06</wgt>
  <wgt id="21">2.8124e-06</wgt>
  <wgt id="22">2.83681e-06</wgt>
  <wgt id="23">2.80862e-06</wgt>
  <wgt id="24">2.88637e-06</wgt>
  <wgt id="25">2.78777e-06</wgt>
  <wgt id="26">2.82646e-06</wgt>
  <wgt id="27">2.8233e-06</wgt>
  <wgt id="28">2.85537e-06</wgt>
  <wgt id="29">2.81429e-06</wgt>
  <wgt id="30">2.82535e-06</wgt>
  <wgt id="31">2.82413e-06</wgt>
  <wgt id="32">2.83802e-06</wgt>
  <wgt id="33">2.81269e-06</wgt>
  <wgt id="34">2.80241e-06</wgt>
  <wgt id="35">2.86652e-06</wgt>
  <wgt id="36">2.84248e-06</wgt>
  <wgt id="37">2.81279e-06</wgt>
  <wgt id="38">2.84217e-06</wgt>
  <wgt id="39">2.81773e-06</wgt>
  <wgt id="40">2.82066e-06</wgt>
  <wgt id="41">2.83026e-06</wgt>
  <wgt id="42">2.84655e-06</wgt>
  <wgt id="43">2.77871e-06</wgt>
  <wgt id="44">2.83199e-06</wgt>
  <wgt id="45">2.82286e-06</wgt>
  <wgt id="46">2.81852e-06</wgt>
  <wgt id="47">2.83029e-06</wgt>
  <wgt id="48">2.83204e-06</wgt>
  <wgt id="49">2.82517e-06</wgt>
  <wgt id="50">2.83207e-06</wgt>
  <wgt id="51">2.82011e-06</wgt>
  <wgt id="52">2.83531e-06</wgt>
  <wgt id="53">2.82258e-06</wgt>
</rwgt>
</event>
<event>
 10      0 +2.8251000e-06 2.02743400e+02 7.54677100e-03 1.08272600e-01
        2 -1    0    0  501    0 +0.00000000000e+00 +0.00000000000e+00 +2.46379809470e+02  2.46379809470e+02  0.00000000000e+00 0.0000e+00 -1.0000e+00
        2 -1    0    0  502    0 +0.00000000000e+00 +0.00000000000e+00 -4.41610562590e+02  4.41610562590e+02  0.00000000000e+00 0.0000e+00 -1.0000e+00
       24  2    1    2    0    0 -5.27501270734e+01 +8.23401696866e+00 -3.65160698912e+01  1.03250070189e+02  8.04784361925e+01 0.0000e+00 0.0000e+00
        2  1    3    3  503    0 -2.83595381709e+01 +2.18843461386e+01 +1.93998596437e+01  4.07374835425e+01  0.00000000000e+00 0.0000e+00 -1.0000e+00
       -1  1    3    3    0  503 -2.43905889025e+01 -1.36503291699e+01 -5.59159295349e+01  6.25125866463e+01  0.00000000000e+00 0.0000e+00 1.0000e+00
       24  2    1    2    0    0 +8.15445466384e+01 -9.02576272321e+01 +1.49062123464e+02  2.09368311690e+02  8.25809961694e+01 0.0000e+00 0.0000e+00
        2  1    6    6  504    0 +5.51926143833e+01 -1.03048486851e+02 +1.27621177236e+02  1.73067559652e+02  0.00000000000e+00 0.0000e+00 -1.0000e+00
       -1  1    6    6    0  504 +2.63519322551e+01 +1.27908596192e+01 +2.14409462281e+01  3.63007520381e+01  0.00000000000e+00 0.0000e+00 1.0000e+00
        1  1    1    2  501    0 +4.40318805591e+01 -4.81897200500e+01 -1.04678032703e+02  1.23363471719e+02  0.00000000000e+00 0.0000e+00 -1.0000e+00
        1  1    1    2  502    0 -7.28263001241e+01 +1.30213330313e+02 -2.03098773990e+02  2.52008518462e+02  0.00000000000e+00 0.0000e+00 -1.0000e+00
#  0.1300000e+05  0.1300000e+05  0.1300000e+05  0.1300000e+05
<mgrwt>
<rscale>  2 0.18678134e+03</rscale>
<asrwt>0</asrwt>
<pdfrwt beam="1">  1        2 0.37904586e-01 0.14604742e+03</pdfrwt>
<pdfrwt beam="2">  1        2 0.67940087e-01 0.20274338e+03</pdfrwt>
<totfact> 0.17437708e+01</totfact>
</mgrwt>
<clustering>
<clus scale="   65.295">  3  5 -1 -1</clus>
<clus scale="  146.047">  1  4  2 -1</clus>
<clus scale="  106.583">  1  6  2 -1</clus>
<clus scale="  202.743">  1  3  2 -1</clus>
</clustering>
<rwgt>
  <wgt id="1">4.27594e-06</wgt>
  <wgt id="2">2.79175e-06</wgt>
  <wgt id="3">1.97003e-06</wgt>
  <wgt id="4">4.32703e-06</wgt>
  <wgt id="5">2.8251e-06</wgt>
  <wgt id="6">1.99357e-06</wgt>
  <wgt id="7">4.3012e-06</wgt>
  <wgt id="8">2.80824e-06</wgt>
  <wgt id="9">1.98167e-06</wgt>
  <wgt id="10">2.8251e-06</wgt>
  <wgt id="11">2.8251e-06</wgt>
  <wgt id="12">2.8251e-06</wgt>
  <wgt id="13">2.8251e-06</wgt>
  <wgt id="14">2.82844e-06</wgt>
  <wgt id="15">2.82232e-06</wgt>
  <wgt id="16">2.83182e-06</wgt>
  <wgt id="17">2.81746e-06</wgt>
  <wgt id="18">2.81444e-06</wgt>
  <wgt id="19">2.84092e-06</wgt>
  <wgt id="20">2.81385e-06</wgt>
  <wgt id="21">2.83268e-06</wgt>
  <wgt id="22">2.83003e-06</wgt>
  <wgt id="23">2.8181e-06</wgt>
  <wgt id="24">2.85362e-06</wgt>
  <wgt id="25">2.80745e-06</wgt>
  <wgt id="26">2.82323e-06</wgt>
  <wgt id="27">2.82773e-06</wgt>
  <wgt id="28">2.85256e-06</wgt>
  <wgt id="29">2.81507e-06</wgt>
  <wgt id="30">2.83042e-06</wgt>
  <wgt id="31">2.81788e-06</wgt>
  <wgt id="32">2.83123e-06</wgt>
  <wgt id="33">2.81924e-06</wgt>
  <wgt id="34">2.79786e-06</wgt>
  <wgt id="35">2.87457e-06</wgt>
  <wgt id="36">2.8263e-06</wgt>
  <wgt id="37">2.82619e-06</wgt>
  <wgt id="38">2.81942e-06</wgt>
  <wgt id="39">2.82773e-06</wgt>
  <wgt id="40">2.82554e-06</wgt>
  <wgt id="41">2.82519e-06</wgt>
  <wgt id="42">2.84231e-06</wgt>
  <wgt id="43">2.78942e-06</wgt>
  <wgt id="44">2.83663e-06</wgt>
  <wgt id="45">2.82046e-06</wgt>
  <wgt id="46">2.82464e-06</wgt>
  <wgt id="47">2.82607e-06</wgt>
  <wgt id="48">2.78484e-06</wgt>
  <wgt id="49">2.84393e-06</wgt>
  <wgt id="50">2.81307e-06</wgt>
  <wgt id="51">2.83625e-06</wgt>
  <wgt id="52">2.82051e-06</wgt>
  <wgt id="53">2.82604e-06</wgt>
</rwgt>
</event>
<event>
 11      0 +2.8251000e-06 6.22889000e+02 7.54677100e-03 9.44975300e-02
        2 -1    0    0  501    0 +0.00000000000e+00 +0.00000000000e+00 +5.57718841490e+02  5.57718841490e+02  0.00000000000e+00 0.0000e+00 -1.0000e+00
        2 -1    0    0  503    0 +0.00000000000e+00 +0.00000000000e+00 -5.98979942490e+02  5.98979942490e+02  0.00000000000e+00 0.0000e+00 -1.0000e+00
       24  2    1    2    0    0 -1.49358654160e+02 +1.31544437503e+02 -3.12738714252e+01  2.17034150588e+02  8.07082454098e+01 0.0000e+00 0.0000e+00
        2  1    3    3  504    0 -5.28714284129e+01 +1.53287859055e+01 -3.62341632909e+01  6.59035219783e+01  0.00000000000e+00 0.0000e+00 -1.0000e+00
       -1  1    3    3    0  504 -9.64872257474e+01 +1.16215651597e+02 +4.96029186575e+00  1.51130628610e+02  0.00000000000e+00 0.0000e+00 1.0000e+00
       24  2    1    2    0    0 +1.16177016248e+02 -1.14431811026e+02 -1.80181542596e+02  2.56128778621e+02  8.09000894105e+01 0.0000e+00 0.0000e+00
       12  1    6    6    0    0 +1.14411174815e+02 -6.31985390725e+01 -1.26310946785e+02  1.81764758799e+02  0.00000000000e+00 0.0000e+00 -1.0000e+00
      -11  1    6    6    0    0 +1.76584143231e+00 -5.12332719538e+01 -5.38705958108e+01  7.43640198219e+01  0.00000000000e+00 0.0000e+00 1.0000e+00
       21  1    1    2  503  502 +4.40093826648e+01 -1.97019099531e+01 -1.34017695326e+02  1.42427994716e+02  0.00000000000e+00 0.0000e+00 -1.0000e+00
        1  1    1    2  501    0 -4.40399603896e+01 +1.46387742572e+02 -4.71779483448e+01  1.59983274427e+02  0.00000000000e+00 0.0000e+00 -1.0000e+00
        1  1    1    2  502    0 +3.32122156375e+01 -1.43798459095e+02 +3.51389956692e+02  3.81124585628e+02  0.00000000000e+00 0.0000e+00 -1.0000e+00
#  0.1300000e+05  0.1300000e+05  0.4835019e+02  0.1300000e+05  0.1300000e+05
<mgrwt>
<rscale>  2 0.53938182e+03</rscale>
<asrwt>  1 0.48350195e+02</asrwt>
<pdfrwt beam="1">  1        2 0.85802899e-01 0.62288904e+03</pdfrwt>
<pdfrwt beam="2">  2        2        2 0.92150760e-01 0.70074281e-01 0.48350195e+02 0.62288904e+03</pdfrwt>
<totfact> 0.57422294e-01</totfact>
</mgrwt>
<clustering>
<clus scale="   48.350">  2  5  1 -1</clus>
<clus scale="  145.983">  3  6 -1 -1</clus>
<clus scale="  148.596">  4  7 -1 -1</clus>
<clus scale="  350.230">  2  3  1 -1</clus>
<clus scale="  622.889">  1  3  2 -1</clus>
</clustering>
<rwgt>
  <wgt id="1">4.25395e-06</wgt>
  <wgt id="2">2.95553e-06</wgt>
  <wgt id="3">2.1759e-06</wgt>
  <wgt id="4">4.06623e-06</wgt>
  <wgt id="5">2.8251e-06</wgt>
  <wgt id="6">2.07987e-06</wgt>
  <wgt id="7">3.88031e-06</wgt>
  <wgt id="8">2.69593e-06</wgt>
  <wgt id="9">1.98478e-06</wgt>
  <wgt id="10">3.71289e-06</wgt>
  <wgt id="11">2.8251e-06</wgt>
  <wgt id="12">2.28544e-06</wgt>
  <wgt id="13">2.8251e-06</wgt>
  <wgt id="14">2.82806e-06</wgt>
  <wgt id="15">2.8227e-06</wgt>
  <wgt id="16">2.82184e-06</wgt>
  <wgt id="17">2.82865e-06</wgt>
  <wgt id="18">2.81272e-06</wgt>
  <wgt id="19">2.84344e-06</wgt>
  <wgt id="20">2.81032e-06</wgt>
  <wgt id="21">2.83513e-06</wgt>
  <wgt id="22">2.83125e-06</wgt>
  <wgt id="23">2.81638e-06</wgt>
  <wgt id="24">2.8603e-06</wgt>
  <wgt id="25">2.8034e-06</wgt>
  <wgt id="26">2.82334e-06</wgt>
  <wgt id="27">2.82752e-06</wgt>
  <wgt id="28">2.86906e-06</wgt>
  <wgt id="29">2.80921e-06</wgt>
  <wgt id="30">2.82892e-06</wgt>
  <wgt id="31">2.8202e-06</wgt>
  <wgt id="32">2.8302e-06</wgt>
  <wgt id="33">2.82027e-06</wgt>
  <wgt id="34">2.79298e-06</wgt>
  <wgt id="35">2.88444e-06</wgt>
  <wgt id="36">2.84578e-06</wgt>
  <wgt id="37">2.81517e-06</wgt>
  <wgt id="38">2.81399e-06</wgt>
  <wgt id="39">2.83045e-06</wgt>
  <wgt id="40">2.82503e-06</wgt>
  <wgt id="41">2.82574e-06</wgt>
  <wgt id="42">2.8465e-06</wgt>
  <wgt id="43">2.78706e-06</wgt>
  <wgt id="44">2.83674e-06</wgt>
  <wgt id="45">2.82053e-06</wgt>
  <wgt id="46">2.82693e-06</wgt>
  <wgt id="47">2.82453e-06</wgt>
  <wgt id="48">2.79978e-06</wgt>
  <wgt id="49">2.83819e-06</wgt>
  <wgt id="50">2.81354e-06</wgt>
  <wgt id="51">2.84073e-06</wgt>
  <wgt id="52">2.82952e-06</wgt>
  <wgt id="53">2.8238e-06</wgt>
</rwgt>
</event>
<event>
 10      0 +2.8251000e-06 3.78916300e+02 7.54677100e-03 1.03532200e-01
        2 -1    0    0  502    0 +0.00000000000e+00 +0.00000000000e+00 +2.04446930560e+03  2.04446930560e+03  0.00000000000e+00 0.0000e+00 -1.0000e+00
        4 -1    0    0  501    0 +0.00000000000e+00 +0.00000000000e+00 -7.20032962750e+01  7.20032962750e+01  0.00000000000e+00 0.0000e+00 -1.0000e+00
       24  2    1    2    0    0 +1.78520044838e+01 +7.64829333851e+01 +1.41508651180e+03  1.41949064030e+03  7.94701759126e+01 0.0000e+00 0.0000e+00
        4  1    3    3  503    0 +4.48038389320e+01 +7.08506067491e+01 +1.01308861368e+03  1.01655089968e+03  0.00000000000e+00 0.0000e+00 -1.0000e+00
       -3  1    3    3    0  503 -2.69518344482e+01 +5.63232663599e+00 +4.01997898116e+02  4.02939740622e+02  0.00000000000e+00 0.0000e+00 1.0000e+00
       24  2    1    2    0    0 +3.86353019455e+00 +3.00982530093e+01 +2.88980540155e+01  8.84664494235e+01  7.79126655168e+01 0.0000e+00 0.0000e+00
       12  1    6    6    0    0 -2.99131978911e+01 -8.95655053822e+00 +5.20829836693e+00  3.16566829832e+01  0.00000000000e+00 0.0000e+00 -1.0000e+00
      -11  1    6    6    0    0 +3.37767280857e+01 +3.90548035476e+01 +2.36897556485e+01  5.68097664403e+01  0.00000000000e+00 0.0000e+00 1.0000e+00
        1  1    1    2  501    0 +7.61803028393e+01 +5.56106700789e+01 +8.78889694181e+01  1.28920347939e+02  0.00000000000e+00 0.0000e+00 -1.0000e+00
        3  1    1    2  502    0 -9.78958375177e+01 -1.62191856473e+02 +4.40592474093e+02  4.79595164213e+02  0.00000000000e+00 0.0000e+00 -1.0000e+00
#  0.1300000e+05  0.1300000e+05  0.1300000e+05  0.1300000e+05
<mgrwt>
<rscale>  2 0.26045725e+03</rscale>
<asrwt>0</asrwt>
<pdfrwt beam="1">  1        2 0.31453374e+00 0.37891630e+03</pdfrwt>
<pdfrwt beam="2">  1        4 0.11077430e-01 0.84589393e+02</pdfrwt>
<totfact> 0.27475203e+00</totfact>
</mgrwt>
<clustering>
<clus scale="   84.589">  2  4  1 -1</clus>
<clus scale="  103.547">  3  5 -1 -1</clus>
<clus scale="  176.712">  2  6  1 -1</clus>
<clus scale="  378.916">  1  3  2 -1</clus>
</clustering>
<rwgt>
  <wgt id="1">3.86953e-06</wgt>
  <wgt id="2">2.58167e-06</wgt>
  <wgt id="3">1.84842e-06</wgt>
  <wgt id="4">4.23439e-06</wgt>
  <wgt id="5">2.8251e-06</wgt>
  <wgt id="6">2.02272e-06</wgt>
  <wgt id="7">4.29273e-06</wgt>
  <wgt id="8">2.86402e-06</wgt>
  <wgt id="9">2.05058e-06</wgt>
  <wgt id="10">2.8251e-06</wgt>
  <wgt id="11">2.8251e-06</wgt>
  <wgt id="12">2.8251e-06</wgt>
  <wgt id="13">2.8251e-06</wgt>
  <wgt id="14">2.83075e-06</wgt>
  <wgt id="15">2.8205e-06</wgt>
  <wgt id="16">2.8146e-06</wgt>
  <wgt id="17">2.83683e-06</wgt>
  <wgt id="18">2.81938e-06</wgt>
  <wgt id="19">2.83355e-06</wgt>
  <wgt id="20">2.82535e-06</wgt>
  <wgt id="21">2.82499e-06</wgt>
  <wgt id="22">2.82646e-06</wgt>
  <wgt id="23">2.82326e-06</wgt>
  <wgt id="24">2.82997e-06</wgt>
  <wgt id="25">2.82188e-06</wgt>
  <wgt id="26">2.83213e-06</wgt>
  <wgt id="27">2.81562e-06</wgt>
  <wgt id="28">2.83688e-06</wgt>
  <wgt id="29">2.82072e-06</wgt>
  <wgt id="30">2.84151e-06</wgt>
  <wgt id="31">2.80024e-06</wgt>
  <wgt id="32">2.81757e-06</wgt>
  <wgt id="33">2.8323e-06</wgt>
  <wgt id="34">2.79386e-06</wgt>
  <wgt id="35">2.88073e-06</wgt>
  <wgt id="36">2.84038e-06</wgt>
  <wgt id="37">2.81669e-06</wgt>
  <wgt id="38">2.82807e-06</wgt>
  <wgt id="39">2.82416e-06</wgt>
  <wgt id="40">2.83337e-06</wgt>
  <wgt id="41">2.81936e-06</wgt>
  <wgt id="42">2.8257e-06</wgt>
  <wgt id="43">2.82751e-06</wgt>
  <wgt id="44">2.82965e-06</wgt>
  <wgt id="45">2.8234e-06</wgt>
  <wgt id="46">2.82598e-06</wgt>
  <wgt id="47">2.8246e-06</wgt>
  <wgt id="48">2.82737e-06</wgt>
  <wgt id="49">2.82844e-06</wgt>
  <wgt id="50">2.82368e-06</wgt>
  <wgt id="51">2.80761e-06</wgt>
  <wgt id="52">2.8302e-06</wgt>
  <wgt id="53">2.82422e-06</wgt>
</rwgt>
</event>
<event>
 10      0 +2.8251000e-06 9.32051500e+01 7.54677100e-03 1.19873800e-01
        2 -1    0    0  501    0 +0.00000000000e+00 +0.00000000000e+00 +2.28065545250e+03  2.28065545250e+03  0.00000000000e+00 0.0000e+00 -1.0000e+00
       -3 -1    0    0    0  501 +0.00000000000e+00 +0.00000000000e+00 -2.62136313590e+02  2.62136313590e+02  0.00000000000e+00 0.0000e+00 1.0000e+00
       24  2    1    2    0    0 -1.99735145961e+01 -2.86728707224e+00 +1.97157320859e+02  2.14234204925e+02  8.13518455306e+01 0.0000e+00 0.0000e+00
        4  1    3    3  503    0 -1.55598634701e+01 -3.67546948422e+01 +1.54368452283e+02  1.59444774152e+02  0.00000000000e+00 0.0000e+00 -1.0000e+00
       -3  1    3    3    0  503 -4.41365112604e+00 +3.38874077700e+01 +4.27888685762e+01  5.47894307735e+01  0.00000000000e+00 0.0000e+00 1.0000e+00
       24  2    1    2    0    0 +2.36027329589e-01 +9.13842895173e+00 -1.78157322125e+02  1.96438261957e+02  8.22459284165e+01 0.0000e+00 0.0000e+00
       16  1    6    6    0    0 +2.18111343328e+01 +3.28579422777e+01 -1.45184854771e+02  1.50446043506e+02  0.00000000000e+00 0.0000e+00 -1.0000e+00
      -15  1    6    6    0    0 -2.15751070032e+01 -2.37195133259e+01 -3.29724673542e+01  4.59922184510e+01  1.77700000000e+00 0.0000e+00 1.0000e+00
        1  1    1    2  502    0 -7.49613297619e+01 +4.66968102160e+01 +2.01980395917e+03  2.02173386639e+03  0.00000000000e+00 0.0000e+00 -1.0000e+00
       -4  1    1    2    0  502 +9.46988170284e+01 -5.29679520955e+01 -2.02848189948e+01  1.10385432813e+02  0.00000000000e+00 0.0000e+00 1.0000e+00
#  0.1300000e+05  0.1300000e+05  0.1300000e+05  0.1300000e+05
<mgrwt>
<rscale>  2 0.92697919e+02</rscale>
<asrwt>0</asrwt>
<pdfrwt beam="1">  1        2 0.35087007e+00 0.82872527e+02</pdfrwt>
<pdfrwt beam="2">  1       -3 0.40328664e-01 0.81083190e+02</pdfrwt>
<totfact> 0.44811341e-01</totfact>
</mgrwt>
<clustering>
<clus scale="   81.083">  2  4  1 -1</clus>
<clus scale="   82.873">  1  3  2 -1</clus>
<clus scale="  104.826">  2  6  1 -1</clus>
<clus scale="  104.826">  1  3  2 -1</clus>
</clustering>
<rwgt>
  <wgt id="1">5.21244e-06</wgt>
  <wgt id="2">3.22215e-06</wgt>
  <wgt id="3">2.19498e-06</wgt>
  <wgt id="4">4.57013e-06</wgt>
  <wgt id="5">2.8251e-06</wgt>
  <wgt id="6">1.9245e-06</wgt>
  <wgt id="7">3.99443e-06</wgt>
  <wgt id="8">2.46922e-06</wgt>
  <wgt id="9">1.68207e-06</wgt>
  <wgt id="10">2.8251e-06</wgt>
  <wgt id="11">2.8251e-06</wgt>
  <wgt id="12">2.8251e-06</wgt>
  <wgt id="13">2.8251e-06</wgt>
  <wgt id="14">2.83329e-06</wgt>
  <wgt id="15">2.81837e-06</wgt>
  <wgt id="16">2.78687e-06</wgt>
  <wgt id="17">2.86832e-06</wgt>
  <wgt id="18">2.84669e-06</wgt>
  <wgt id="19">2.79277e-06</wgt>
  <wgt id="20">2.80175e-06</wgt>
  <wgt id="21">2.84073e-06</wgt>
  <wgt id="22">2.855e-06</wgt>
  <wgt id="23">2.78268e-06</wgt>
  <wgt id="24">2.83809e-06</wgt>
  <wgt id="25">2.81698e-06</wgt>
  <wgt id="26">2.82536e-06</wgt>
  <wgt id="27">2.82484e-06</wgt>
  <wgt id="28">2.84105e-06</wgt>
  <wgt id="29">2.81913e-06</wgt>
  <wgt id="30">2.83692e-06</wgt>
  <wgt id="31">2.80907e-06</wgt>
  <wgt id="32">2.81519e-06</wgt>
  <wgt id="33">2.83466e-06</wgt>
  <wgt id="34">2.78653e-06</wgt>
  <wgt id="35">2.89735e-06</wgt>
  <wgt id="36">2.83689e-06</wgt>
  <wgt id="37">2.81915e-06</wgt>
  <wgt id="38">2.80809e-06</wgt>
  <wgt id="39">2.83389e-06</wgt>
  <wgt id="40">2.83831e-06</wgt>
  <wgt id="41">2.81313e-06</wgt>
  <wgt id="42">2.83793e-06</wgt>
  <wgt id="43">2.80292e-06</wgt>
  <wgt id="44">2.80455e-06</wgt>
  <wgt id="45">2.83291e-06</wgt>
  <wgt id="46">2.85528e-06</wgt>
  <wgt id="47">2.80154e-06</wgt>
  <wgt id="48">2.82676e-06</wgt>
  <wgt id="49">2.82931e-06</wgt>
  <wgt id="50">2.83575e-06</wgt>
  <wgt id="51">2.81011e-06</wgt>
  <wgt id="52">2.76811e-06</wgt>
  <wgt id="53">2.86385e-06</wgt>
</rwgt>
</event>
<event>
 10      0 +2.8251000e-06 1.56861400e+02 7.54677100e-03 1.13549100e-01
        2 -1    0    0  501    0 +0.00000000000e+00 +0.00000000000e+00 +4.34804942160e+02  4.34804942160e+02  0.00000000000e+00 0.0000e+00 -1.0000e+00
        2 -1    0    0  502    0 +0.00000000000e+00 +0.00000000000e+00 -8.09701908210e+02  8.09701908210e+02  0.00000000000e+00 0.0000e+00 -1.0000e+00
       24  2    1    2    0    0 +1.13612718316e+02 -8.65552435563e+01 +2.96192196084e+02  3.37122374514e+02  7.43102847974e+01 0.0000e+00 0.0000e+00
        2  1    3    3  503    0 +2.81095718538e+01 -3.59903702816e+01 +1.72701364390e+02  1.78637107134e+02  0.00000000000e+00 0.0000e+00 -1.0000e+00
       -1  1    3    3    0  503 +8.55031464621e+01 -5.05648732747e+01 +1.23490831693e+02  1.58485267380e+02  0.00000000000e+00 0.0000e+00 1.0000e+00
       24  2    1    2    0    0 +7.28203790639e+00 +1.02227631210e+01 -2.66427518388e+02  2.78860451192e+02  8.13756457573e+01 0.0000e+00 0.0000e+00
        4  1    6    6  504    0 -2.49189974236e+00 +2.73159511843e+01 -2.54214705618e+02  2.55690217462e+02  0.00000000000e+00 0.0000e+00 -1.0000e+00
       -3  1    6    6    0  504 +9.77393764875e+00 -1.70931880633e+01 -1.22128127707e+01  2.31702337300e+01  0.00000000000e+00 0.0000e+00 1.0000e+00
        1  1    1    2  501    0 -7.33809460926e+01 -5.14594848257e+01 -4.69198424818e+02  4.77681906377e+02  0.00000000000e+00 0.0000e+00 -1.0000e+00
        1  1    1    2  502    0 -4.75138101297e+01 +1.27791965261e+02 +6.45367810728e+01  1.50842118288e+02  0.00000000000e+00 0.0000e+00 -1.0000e+00
#  0.1300000e+05  0.1300000e+05  0.1300000e+05  0.1300000e+05
<mgrwt>
<rscale>  2 0.13338839e+03</rscale>
<asrwt>0</asrwt>
<pdfrwt beam="1">  1        2 0.66893068e-01 0.15686138e+03</pdfrwt>
<pdfrwt beam="2">  1        2 0.12456952e+00 0.82020798e+02</pdfrwt>
<totfact> 0.54005113e+00</totfact>
</mgrwt>
<clustering>
<clus scale="   82.021">  2  4  1 -1</clus>
<clus scale="   79.282">  2  5  1 -1</clus>
<clus scale="  134.678">  2  6  1 -1</clus>
<clus scale="  156.861">  1  3  2 -1</clus>
</clustering>
<rwgt>
  <wgt id="1">4.73464e-06</wgt>
  <wgt id="2">3.01601e-06</wgt>
  <wgt id="3">2.09428e-06</wgt>
  <wgt id="4">4.43495e-06</wgt>
  <wgt id="5">2.8251e-06</wgt>
  <wgt id="6">1.96172e-06</wgt>
  <wgt id="7">4.14846e-06</wgt>
  <wgt id="8">2.6426e-06</wgt>
  <wgt id="9">1.835e-06</wgt>
  <wgt id="10">2.8251e-06</wgt>
  <wgt id="11">2.8251e-06</wgt>
  <wgt id="12">2.8251e-06</wgt>
  <wgt id="13">2.8251e-06</wgt>
  <wgt id="14">2.82798e-06</wgt>
  <wgt id="15">2.82271e-06</wgt>
  <wgt id="16">2.8229e-06</wgt>
  <wgt id="17">2.82745e-06</wgt>
  <wgt id="18">2.81279e-06</wgt>
  <wgt id="19">2.8433e-06</wgt>
  <wgt id="20">2.81101e-06</wgt>
  <wgt id="21">2.83459e-06</wgt>
  <wgt id="22">2.83128e-06</wgt>
  <wgt id="23">2.81634e-06</wgt>
  <wgt id="24">2.86032e-06</wgt>
  <wgt id="25">2.80334e-06</wgt>
  <wgt id="26">2.82343e-06</wgt>
  <wgt id="27">2.82749e-06</wgt>
  <wgt id="28">2.86771e-06</wgt>
  <wgt id="29">2.80971e-06</wgt>
  <wgt id="30">2.82996e-06</wgt>
  <wgt id="31">2.81881e-06</wgt>
  <wgt id="32">2.83041e-06</wgt>
  <wgt id="33">2.82008e-06</wgt>
  <wgt id="34">2.79216e-06</wgt>
  <wgt id="35">2.88571e-06</wgt>
  <wgt id="36">2.84371e-06</wgt>
  <wgt id="37">2.816e-06</wgt>
  <wgt id="38">2.81487e-06</wgt>
  <wgt id="39">2.83004e-06</wgt>
  <wgt id="40">2.82519e-06</wgt>
  <wgt id="41">2.82555e-06</wgt>
  <wgt id="42">2.8467e-06</wgt>
  <wgt id="43">2.78607e-06</wgt>
  <wgt id="44">2.83657e-06</wgt>
  <wgt id="45">2.82059e-06</wgt>
  <wgt id="46">2.82616e-06</wgt>
  <wgt id="47">2.82494e-06</wgt>
  <wgt id="48">2.79765e-06</wgt>
  <wgt id="49">2.83913e-06</wgt>
  <wgt id="50">2.81341e-06</wgt>
  <wgt id="51">2.83972e-06</wgt>
  <wgt id="52">2.82861e-06</wgt>
  <wgt id="53">2.82399e-06</wgt>
</rwgt>
</event>
<event>
 12      0 +2.8251000e-06 2.96738500e+02 7.54677100e-03 1.06091100e-01
        2 -1    0    0  503    0 +0.00000000000e+00 +0.00000000000e+00 +1.29767193180e+03  1.29767193180e+03  0.00000000000e+00 0.0000e+00 -1.0000e+00
        2 -1    0    0  504    0 +0.00000000000e+00 +0.00000000000e+00 -1.53339707830e+03  1.53339707830e+03  0.00000000000e+00 0.0000e+00 -1.0000e+00
       24  2    1    2    0    0 +2.21478965638e+02 -2.41586333405e+02 -1.29145693916e+03  1.33495798779e+03  8.26735433814e+01 0.0000e+00 0.0000e+00
        4  1    3    3  505    0 +2.02239505797e+02 -2.00377797472e+02 -1.19308304285e+03  1.22658029764e+03  0.00000000000e+00 0.0000e+00 -1.0000e+00
       -3  1    3    3    0  505 +1.92394598412e+01 -4.12085359338e+01 -9.83738963100e+01  1.08377690158e+02  0.00000000000e+00 0.0000e+00 1.0000e+00
       24  2    1    2    0    0 -7.56398499001e+00 +2.64241857474e+01 +5.73200879799e+01  1.03357527571e+02  8.14968377193e+01 0.0000e+00 0.0000e+00
       12  1    6    6    0    0 +3.15938334352e+01 +3.04336072963e+01 +4.31202320999e+01  6.15120246825e+01  0.00000000000e+00 0.0000e+00 -1.0000e+00
      -11  1    6    6    0    0 -3.91578184252e+01 -4.00942154893e+00 +1.41998558800e+01  4.18455028885e+01  0.00000000000e+00 0.0000e+00 1.0000e+00
       21  1    1    2  503  502 +3.25744825803e+01 -5.50215213462e+01 +2.93732247101e+02  3.00611206899e+02  0.00000000000e+00 0.0000e+00 -1.0000e+00
       21  1    1    2  504  501 -5.89244786915e+01 +2.20569130497e+01 -7.07071920898e+01  9.46472853048e+01  0.00000000000e+00 0.0000e+00 1.0000e+00
        1  1    1    2  501    0 +3.86799074929e+01 -1.56003523300e+02 +1.54961361168e+02  2.23262755472e+02  0.00000000000e+00 0.0000e+00 -1.0000e+00
        1  1    1    2  502    0 -2.26244892030e+02 +4.04130279254e+02 +6.20425288496e+02  7.74232247059e+02  0.00000000000e+00 0.0000e+00 -1.0000e+00
#  0.1300000e+05  0.1300000e+05  0.6382899e+02  0.6289537e+02  0.1300000e+05  0.1300000e+05
<mgrwt>
<rscale>  2 0.21685298e+03</rscale>
<asrwt>  2 0.62895365e+02 0.63828988e+02</asrwt>
<pdfrwt beam="1">  2        2        2 0.19964184e+00 0.15316144e+00 0.63828988e+02 0.29673847e+03</pdfrwt>
<pdfrwt beam="2">  2        2        2 0.23590724e+00 0.22102052e+00 0.62895365e+02 0.29673847e+03</pdfrwt>
<totfact> 0.70923823e-03</totfact>
</mgrwt>
<clustering>
<clus scale="   62.895">  2  6  1 -1</clus>
<clus scale="   63.829">  1  5  2 -1</clus>
<clus scale="   84.633">  1  4  2 -1</clus>
<clus scale="  166.642">  1  7  2 -1</clus>
<clus scale="  285.634">  1  8  2 -1</clus>
<clus scale="  296.738">  1  3  2 -1</clus>
</clustering>
<rwgt>
  <wgt id="1">5.08516e-06</wgt>
  <wgt id="2">3.35343e-06</wgt>
  <wgt id="3">2.38223e-06</wgt>
  <wgt id="4">4.28399e-06</wgt>
  <wgt id="5">2.8251e-06</wgt>
  <wgt id="6">2.00691e-06</wgt>
  <wgt id="7">3.68365e-06</wgt>
  <wgt id="8">2.4292e-06</wgt>
  <wgt id="9">1.72567e-06</wgt>
  <wgt id="10">4.73827e-06</wgt>
  <wgt id="11">2.8251e-06</wgt>
  <wgt id="12">1.8817e-06</wgt>
  <wgt id="13">2.8251e-06</wgt>
  <wgt id="14">2.82808e-06</wgt>
  <wgt id="15">2.82264e-06</wgt>
  <wgt id="16">2.80545e-06</wgt>
  <wgt id="17">2.84701e-06</wgt>
  <wgt id="18">2.81052e-06</wgt>
  <wgt id="19">2.84661e-06</wgt>
  <wgt id="20">2.8187e-06</wgt>
  <wgt id="21">2.82936e-06</wgt>
  <wgt id="22">2.83399e-06</wgt>
  <wgt id="23">2.81239e-06</wgt>
  <wgt id="24">2.87325e-06</wgt>
  <wgt id="25">2.79545e-06</wgt>
  <wgt id="26">2.82601e-06</wgt>
  <wgt id="27">2.82379e-06</wgt>
  <wgt id="28">2.87922e-06</wgt>
  <wgt id="29">2.80551e-06</wgt>
  <wgt id="30">2.83141e-06</wgt>
  <wgt id="31">2.8171e-06</wgt>
  <wgt id="32">2.82576e-06</wgt>
  <wgt id="33">2.82434e-06</wgt>
  <wgt id="34">2.78085e-06</wgt>
  <wgt id="35">2.90701e-06</wgt>
  <wgt id="36">2.8457e-06</wgt>
  <wgt id="37">2.81325e-06</wgt>
  <wgt id="38">2.81388e-06</wgt>
  <wgt id="39">2.83109e-06</wgt>
  <wgt id="40">2.82946e-06</wgt>
  <wgt id="41">2.82074e-06</wgt>
  <wgt id="42">2.85039e-06</wgt>
  <wgt id="43">2.78548e-06</wgt>
  <wgt id="44">2.82984e-06</wgt>
  <wgt id="45">2.82348e-06</wgt>
  <wgt id="46">2.82215e-06</wgt>
  <wgt id="47">2.82674e-06</wgt>
  <wgt id="48">2.83052e-06</wgt>
  <wgt id="49">2.82822e-06</wgt>
  <wgt id="50">2.81803e-06</wgt>
  <wgt id="51">2.83674e-06</wgt>
  <wgt id="52">2.84419e-06</wgt>
  <wgt id="53">2.82038e-06</wgt>
</rwgt>
</event>
<event>
 12      0 +2.8251000e-06 6.41307000e+02 7.54677100e-03 9.84617900e-02
        2 -1    0    0  502    0 +0.00000000000e+00 +0.00000000000e+00 +4.68011102490e+03  4.68011102490e+03  0.00000000000e+00 0.0000e+00 -1.0000e+00
        2 -1    0    0  504    0 +0.00000000000e+00 +0.00000000000e+00 -1.41008887000e+03  1.41008887000e+03  0.00000000000e+00 0.0000e+00 -1.0000e+00
       24  2    1    2    0    0 +2.85992291150e+01 -3.07244224565e+01 +2.65580785398e+03  2.65735723168e+03  8.04375127628e+01 0.0000e+00 0.0000e+00
        2  1    3    3  505    0 +5.54587355961e+01 -1.05898582339e+01 +1.81996181273e+03  1.82083739424e+03  0.00000000000e+00 0.0000e+00 -1.0000e+00
       -1  1    3    3    0  505 -2.68595064811e+01 -2.01345642226e+01 +8.35846041246e+02  8.36519837441e+02  0.00000000000e+00 0.0000e+00 1.0000e+00
       24  2    1    2    0    0 -1.09441432684e+01 -1.24096452658e+01 -2.02005550761e+02  2.19005916124e+02  8.29673139953e+01 0.0000e+00 0.0000e+00
       12  1    6    6    0    0 -4.36223314774e+00 -4.50335977643e+01 -1.54597626677e+02  1.61082215591e+02  0.00000000000e+00 0.0000e+00 -1.0000e+00
      -11  1    6    6    0    0 -6.58191012069e+00 +3.26239524985e+01 -4.74079240843e+01  5.79237005331e+01  0.00000000000e+00 0.0000e+00 1.0000e+00
       21  1    1    2  503  501 +5.27659696086e+02 -1.72119083988e+02 -1.03404341069e+03  1.17358234016e+03  0.00000000000e+00 0.0000e+00 -1.0000e+00
       21  1    1    2  504  503 -1.11137371461e+01 -4.89091393639e+01 +1.22668201001e+01  5.16342322693e+01  0.00000000000e+00 0.0000e+00 -1.0000e+00
        1  1    1    2  501    0 -5.97178641574e+01 +1.83180106633e+01 -1.14597620231e+01  6.35066843711e+01  0.00000000000e+00 0.0000e+00 -1.0000e+00
        1  1    1    2  502    0 -4.74483180629e+02 +2.45844280411e+02 +1.84945620430e+03  1.92511349030e+03  0.00000000000e+00 0.0000e+00 -1.0000e+00
#  0.1300000e+05  0.1300000e+05  0.4846253e+02  0.5034546e+02  0.1300000e+05  0.1300000e+05
<mgrwt>
<rscale>  3 0.38539247e+03</rscale>
<asrwt>  1 0.50345459e+02</asrwt>
<pdfrwt beam="1">  1        2 0.72001708e+00 0.64130701e+03</pdfrwt>
<pdfrwt beam="2">  2        2        2 0.21693675e+00 0.21241715e+00 0.50345459e+02 0.64130701e+03</pdfrwt>
<totfact> 0.24239821e-05</totfact>
</mgrwt>
<clustering>
<clus scale="   50.345">  2  6  1 -1</clus>
<clus scale="   62.663">  3  7 -1 -1</clus>
<clus scale="   83.640">  2  4  1 -1</clus>
<clus scale="  534.115">  2  8  1 -1</clus>
<clus scale="   48.463">  2  5  1 -1</clus>
<clus scale="  641.307">  1  3  2 -1</clus>
</clustering>
<rwgt>
  <wgt id="1">7.45726e-06</wgt>
  <wgt id="2">4.20657e-06</wgt>
  <wgt id="3">2.60883e-06</wgt>
  <wgt id="4">5.00824e-06</wgt>
  <wgt id="5">2.8251e-06</wgt>
  <wgt id="6">1.75207e-06</wgt>
  <wgt id="7">3.55886e-06</wgt>
  <wgt id="8">2.00752e-06</wgt>
  <wgt id="9">1.24502e-06</wgt>
  <wgt id="10">3.7042e-06</wgt>
  <wgt id="11">2.8251e-06</wgt>
  <wgt id="12">2.28855e-06</wgt>
  <wgt id="13">2.8251e-06</wgt>
  <wgt id="14">2.82891e-06</wgt>
  <wgt id="15">2.82194e-06</wgt>
  <wgt id="16">2.79502e-06</wgt>
  <wgt id="17">2.85896e-06</wgt>
  <wgt id="18">2.80598e-06</wgt>
  <wgt id="19">2.85354e-06</wgt>
  <wgt id="20">2.81781e-06</wgt>
  <wgt id="21">2.82999e-06</wgt>
  <wgt id="22">2.83696e-06</wgt>
  <wgt id="23">2.8083e-06</wgt>
  <wgt id="24">2.88915e-06</wgt>
  <wgt id="25">2.78601e-06</wgt>
  <wgt id="26">2.82378e-06</wgt>
  <wgt id="27">2.82693e-06</wgt>
  <wgt id="28">2.79389e-06</wgt>
  <wgt id="29">2.83558e-06</wgt>
  <wgt id="30">2.81742e-06</wgt>
  <wgt id="31">2.83469e-06</wgt>
  <wgt id="32">2.79771e-06</wgt>
  <wgt id="33">2.85147e-06</wgt>
  <wgt id="34">2.79305e-06</wgt>
  <wgt id="35">2.88298e-06</wgt>
  <wgt id="36">2.86652e-06</wgt>
  <wgt id="37">2.8003e-06</wgt>
  <wgt id="38">2.82241e-06</wgt>
  <wgt id="39">2.82668e-06</wgt>
  <wgt id="40">2.86752e-06</wgt>
  <wgt id="41">2.78278e-06</wgt>
  <wgt id="42">2.83874e-06</wgt>
  <wgt id="43">2.8032e-06</wgt>
  <wgt id="44">2.83367e-06</wgt>
  <wgt id="45">2.82187e-06</wgt>
  <wgt id="46">2.82613e-06</wgt>
  <wgt id="47">2.82441e-06</wgt>
  <wgt id="48">2.80306e-06</wgt>
  <wgt id="49">2.85036e-06</wgt>
  <wgt id="50">2.80002e-06</wgt>
  <wgt id="51">2.85843e-06</wgt>
  <wgt id="52">2.81764e-06</wgt>
  <wgt id="53">2.82811e-06</wgt>
</rwgt>
</event>
<event>
 10      0 +2.8251000e-06 1.84631000e+02 7.54677100e-03 1.10204600e-01
        2 -1    0    0  502    0 +0.00000000000e+00 +0.00000000000e+00 +1.40731151230e+03  1.40731151230e+03  0.00000000000e+00 0.0000e+00 -1.0000e+00
        2 -1    0    0  501    0 +0.00000000000e+00 +0.00000000000e+00 -1.86537888300e+02  1.86537888300e+02  0.00000000000e+00 0.0000e+00 -1.0000e+00
       24  2    1    2    0    0 +6.36152346562e+01 +1.30012170815e+02 +4.98125663682e+02  5.24972436882e+02  8.07268234644e+01 0.0000e+00 0.0000e+00
       16  1    3    3    0    0 +7.54882184099e+01 +1.15364854528e+02 +4.77347823960e+02  4.96858597408e+02  0.00000000000e+00 0.0000e+00 -1.0000e+00
      -15  1    3    3    0    0 -1.18729837538e+01 +1.46473162872e+01 +2.07778397229e+01  2.81138394747e+01  1.77700000000e+00 0.0000e+00 1.0000e+00
       24  2    1    2    0    0 +8.40373197245e+01 -2.36034726260e+00 -1.11564198263e+02  1.61220689069e+02  8.04841469121e+01 0.0000e+00 0.0000e+00
       16  1    6    6    0    0 +6.00440902577e+01 -3.37347658694e-01 -1.21173617183e+02  1.35234803507e+02  0.00000000000e+00 0.0000e+00 -1.0000e+00
      -15  1    6    6    0    0 +2.39932294667e+01 -2.02299960390e+00 +9.60941892020e+00  2.59858855621e+01  1.77700000000e+00 0.0000e+00 1.0000e+00
        1  1    1    2  501    0 -1.61649868202e+01 -1.99473310466e+02 +5.67359524258e+02  6.01620925628e+02  0.00000000000e+00 0.0000e+00 -1.0000e+00
        1  1    1    2  502    0 -1.31487567560e+02 +7.18214869137e+01 +2.66852634323e+02  3.06035349021e+02  0.00000000000e+00 0.0000e+00 -1.0000e+00
#  0.1300000e+05  0.1300000e+05  0.1300000e+05  0.1300000e+05
<mgrwt>
<rscale>  2 0.16450195e+03</rscale>
<asrwt>0</asrwt>
<pdfrwt beam="1">  1        2 0.21650946e+00 0.18463097e+03</pdfrwt>
<pdfrwt beam="2">  1        2 0.28698137e-01 0.11635111e+03</pdfrwt>
<totfact> 0.54850655e+00</totfact>
</mgrwt>
<clustering>
<clus scale="  116.351">  2  4  1 -1</clus>
<clus scale="  121.495">  2  6  1 -1</clus>
<clus scale="  166.197">  2  5  1 -1</clus>
<clus scale="  184.631">  1  3  2 -1</clus>
</clustering>
<rwgt>
  <wgt id="1">4.64825e-06</wgt>
  <wgt id="2">3.00772e-06</wgt>
  <wgt id="3">2.10988e-06</wgt>
  <wgt id="4">4.36602e-06</wgt>
  <wgt id="5">2.8251e-06</wgt>
  <wgt id="6">1.98177e-06</wgt>
  <wgt id="7">4.08019e-06</wgt>
  <wgt id="8">2.64015e-06</wgt>
  <wgt id="9">1.85203e-06</wgt>
  <wgt id="10">2.8251e-06</wgt>
  <wgt id="11">2.8251e-06</wgt>
  <wgt id="12">2.8251e-06</wgt>
  <wgt id="13">2.8251e-06</wgt>
  <wgt id="14">2.82862e-06</wgt>
  <wgt id="15">2.82225e-06</wgt>
  <wgt id="16">2.82248e-06</wgt>
  <wgt id="17">2.82793e-06</wgt>
  <wgt id="18">2.81351e-06</wgt>
  <wgt id="19">2.84232e-06</wgt>
  <wgt id="20">2.81891e-06</wgt>
  <wgt id="21">2.82932e-06</wgt>
  <wgt id="22">2.83138e-06</wgt>
  <wgt id="23">2.81623e-06</wgt>
  <wgt id="24">2.85948e-06</wgt>
  <wgt id="25">2.80391e-06</wgt>
  <wgt id="26">2.82511e-06</wgt>
  <wgt id="27">2.82517e-06</wgt>
  <wgt id="28">2.85794e-06</wgt>
  <wgt id="29">2.81317e-06</wgt>
  <wgt id="30">2.83326e-06</wgt>
  <wgt id="31">2.81438e-06</wgt>
  <wgt id="32">2.82864e-06</wgt>
  <wgt id="33">2.82177e-06</wgt>
  <wgt id="34">2.7914e-06</wgt>
  <wgt id="35">2.88661e-06</wgt>
  <wgt id="36">2.83128e-06</wgt>
  <wgt id="37">2.82174e-06</wgt>
  <wgt id="38">2.81831e-06</wgt>
  <wgt id="39">2.82864e-06</wgt>
  <wgt id="40">2.82771e-06</wgt>
  <wgt id="41">2.82302e-06</wgt>
  <wgt id="42">2.84406e-06</wgt>
  <wgt id="43">2.78978e-06</wgt>
  <wgt id="44">2.83217e-06</wgt>
  <wgt id="45">2.82248e-06</wgt>
  <wgt id="46">2.82145e-06</wgt>
  <wgt id="47">2.8277e-06</wgt>
  <wgt id="48">2.80571e-06</wgt>
  <wgt id="49">2.83655e-06</wgt>
  <wgt id="50">2.81497e-06</wgt>
  <wgt id="51">2.83297e-06</wgt>
  <wgt id="52">2.83056e-06</wgt>
  <wgt id="53">2.82366e-06</wgt>
</rwgt>
</event>
<event>
 10      0 +2.8251000e-06 1.63207000e+02 7.54677100e-03 1.11524400e-01
        2 -1    0    0  501    0 +0.00000000000e+00 +0.00000000000e+00 +6.93290422330e+02  6.93290422330e+02  0.00000000000e+00 0.0000e+00 -1.0000e+00
        2 -1    0    0  502    0 +0.00000000000e+00 +0.00000000000e+00 -2.48838734090e+02  2.48838734090e+02  0.00000000000e+00 0.0000e+00 -1.0000e+00
       24  2    1    2    0    0 -1.19035144599e+01 -8.03609676939e+01 +1.41332779521e+02  1.83327429239e+02  8.38714072794e+01 0.0000e+00 0.0000e+00
        4  1    3    3  503    0 -1.69794884033e+01 -8.19779930201e+01 +1.50791007524e+02  1.72472091412e+02  0.00000000000e+00 0.0000e+00 -1.0000e+00
       -3  1    3    3    0  503 +5.07597394336e+00 +1.61702532617e+00 -9.45822800283e+00  1.08553378267e+01  0.00000000000e+00 0.0000e+00 1.0000e+00
       24  2    1    2    0    0 -1.95897352375e+01 -3.94563203094e+01 +5.56727975189e+01  1.07787326288e+02  8.11054152671e+01 0.0000e+00 0.0000e+00
        4  1    6    6  504    0 -9.76608527874e+00 +1.68990823139e+01 +4.57345015399e+01  4.97252454577e+01  0.00000000000e+00 0.0000e+00 -1.0000e+00
       -3  1    6    6    0  504 -9.82364995876e+00 -5.63554026233e+01 +9.93829597897e+00  5.80620808300e+01  0.00000000000e+00 0.0000e+00 1.0000e+00
        1  1    1    2  501    0 -1.90503907113e+02 +1.32579744853e+02 -8.82859373522e+01  2.48321433036e+02  0.00000000000e+00 0.0000e+00 -1.0000e+00
        1  1    1    2  502    0 +2.21997156811e+02 -1.27624568493e+01 +3.35732048552e+02  4.02692967858e+02  0.00000000000e+00 0.0000e+00 -1.0000e+00
#  0.1300000e+05  0.1300000e+05  0.1300000e+05  0.1300000e+05
<mgrwt>
<rscale>  2 0.15119683e+03</rscale>
<asrwt>0</asrwt>
<pdfrwt beam="1">  1        2 0.10666006e+00 0.91725027e+02</pdfrwt>
<pdfrwt beam="2">  1        2 0.38282882e-01 0.12452952e+03</pdfrwt>
<totfact> 0.11264684e+01</totfact>
</mgrwt>
<clustering>
<clus scale="   91.725">  1  4  2 -1</clus>
<clus scale="  124.530">  2  3  1 -1</clus>
<clus scale="  213.897">  1  6  2 -1</clus>
<clus scale="  213.897">  1  3  2 -1</clus>
</clustering>
<rwgt>
  <wgt id="1">4.46361e-06</wgt>
  <wgt id="2">2.8703e-06</wgt>
  <wgt id="3">2.00542e-06</wgt>
  <wgt id="4">4.39332e-06</wgt>
  <wgt id="5">2.8251e-06</wgt>
  <wgt id="6">1.97383e-06</wgt>
  <wgt id="7">4.2654e-06</wgt>
  <wgt id="8">2.74285e-06</wgt>
  <wgt id="9">1.91636e-06</wgt>
  <wgt id="10">2.8251e-06</wgt>
  <wgt id="11">2.8251e-06</wgt>
  <wgt id="12">2.8251e-06</wgt>
  <wgt id="13">2.8251e-06</wgt>
  <wgt id="14">2.82826e-06</wgt>
  <wgt id="15">2.82245e-06</wgt>
  <wgt id="16">2.82833e-06</wgt>
  <wgt id="17">2.82132e-06</wgt>
  <wgt id="18">2.81385e-06</wgt>
  <wgt id="19">2.84175e-06</wgt>
  <wgt id="20">2.8132e-06</wgt>
  <wgt id="21">2.83309e-06</wgt>
  <wgt id="22">2.83049e-06</wgt>
  <wgt id="23">2.81744e-06</wgt>
  <wgt id="24">2.85603e-06</wgt>
  <wgt id="25">2.80595e-06</wgt>
  <wgt id="26">2.82344e-06</wgt>
  <wgt id="27">2.82737e-06</wgt>
  <wgt id="28">2.85799e-06</wgt>
  <wgt id="29">2.81309e-06</wgt>
  <wgt id="30">2.83101e-06</wgt>
  <wgt id="31">2.81718e-06</wgt>
  <wgt id="32">2.83076e-06</wgt>
  <wgt id="33">2.81963e-06</wgt>
  <wgt id="34">2.79536e-06</wgt>
  <wgt id="35">2.87927e-06</wgt>
  <wgt id="36">2.83415e-06</wgt>
  <wgt id="37">2.82125e-06</wgt>
  <wgt id="38">2.81746e-06</wgt>
  <wgt id="39">2.8287e-06</wgt>
  <wgt id="40">2.82537e-06</wgt>
  <wgt id="41">2.82534e-06</wgt>
  <wgt id="42">2.84402e-06</wgt>
  <wgt id="43">2.78805e-06</wgt>
  <wgt id="44">2.8362e-06</wgt>
  <wgt id="45">2.82067e-06</wgt>
  <wgt id="46">2.82471e-06</wgt>
  <wgt id="47">2.8259e-06</wgt>
  <wgt id="48">2.79093e-06</wgt>
  <wgt id="49">2.84154e-06</wgt>
  <wgt id="50">2.8131e-06</wgt>
  <wgt id="51">2.83677e-06</wgt>
  <wgt id="52">2.82427e-06</wgt>
  <wgt id="53">2.82505e-06</wgt>
</rwgt>
</event>
<event>
 12      0 +2.8251000e-06 7.13413000e+02 7.54677100e-03 9.47118700e-02
       21 -1    0    0  504  503 +0.00000000000e+00 +0.00000000000e+00 +4.18106823880e+02  4.18106823880e+02  0.00000000000e+00 0.0000e+00 1.0000e+00
        4 -1    0    0  501    0 +0.00000000000e+00 +0.00000000000e+00 -1.01796727110e+03  1.01796727110e+03  0.00000000000e+00 0.0000e+00 -1.0000e+00
       24  2    1    2    0    0 +9.47853564373e+01 +6.65076143628e+01 -1.39600174362e+02  1.98655130189e+02  8.10439726665e+01 0.0000e+00 0.0000e+00
       14  1    3    3    0    0 +6.84268049775e+01 +6.32174969754e+00 -1.01891374651e+02  1.22898512550e+02  0.00000000000e+00 0.0000e+00 -1.0000e+00
      -13  1    3    3    0    0 +2.63585514598e+01 +6.01858646653e+01 -3.77087997105e+01  7.57566176395e+01  0.00000000000e+00 0.0000e+00 1.0000e+00
       24  2    1    2    0    0 -1.85301944060e+01 +2.12861944451e+02 -1.12900121898e+02  2.55114165650e+02  8.17509907638e+01 0.0000e+00 0.0000e+00
        2  1    6    6  505    0 +1.68925349542e+00 +1.40857405276e+02 -1.12574607399e+02  1.80323887573e+02  0.00000000000e+00 0.0000e+00 -1.0000e+00
       -1  1    6    6    0  505 -2.02194479014e+01 +7.20045391750e+01 -3.25514499262e-01  7.47902780777e+01  0.00000000000e+00 0.0000e+00 1.0000e+00
       21  1    1    2  504  502 -7.77735832618e+00 -6.18719775222e+01 +7.93993030102e+01  1.00959785180e+02  0.00000000000e+00 0.0000e+00 -1.0000e+00
        3  1    1    2  501    0 +2.31869788876e+02 -5.53821381131e+01 -3.81613868174e+01  2.41427156010e+02  0.00000000000e+00 0.0000e+00 -1.0000e+00
        3  1    1    2  502    0 -3.27518590688e+00 -1.95862754909e+02 -2.27781897153e+02  3.00428923830e+02  0.00000000000e+00 0.0000e+00 -1.0000e+00
       -4  1    1    2    0  503 -2.97072406674e+02 +3.37473117306e+01 -1.60816170000e+02  3.39488934120e+02  0.00000000000e+00 0.0000e+00 1.0000e+00
#  0.1300000e+05  0.1300000e+05  0.6235887e+02  0.1300000e+05  0.1300000e+05  0.3107368e+03
<mgrwt>
<rscale>  2 0.52927881e+03</rscale>
<asrwt>  2 0.62358872e+02 0.31073681e+03</asrwt>
<pdfrwt beam="1">  2       21       21 0.64324127e-01 0.49769160e-01 0.62358872e+02 0.71341303e+03</pdfrwt>
<pdfrwt beam="2">  1        4 0.15661035e+00 0.21612994e+03</pdfrwt>
<totfact> 0.24741098e-03</totfact>
</mgrwt>
<clustering>
<clus scale="   62.359">  1  5  2 -1</clus>
<clus scale="  216.130">  2  4  1 -1</clus>
<clus scale="  136.687">  2  7  1 -1</clus>
<clus scale="  235.780">  3  6 -1 -1</clus>
<clus scale="  310.737">  3  8 -1 -1</clus>
<clus scale="  713.413">  1  3  2 -1</clus>
</clustering>
<rwgt>
  <wgt id="1">4.43264e-06</wgt>
  <wgt id="2">3.07672e-06</wgt>
  <wgt id="3">2.26361e-06</wgt>
  <wgt id="4">4.07013e-06</wgt>
  <wgt id="5">2.8251e-06</wgt>
  <wgt id="6">2.07849e-06</wgt>
  <wgt id="7">3.66233e-06</wgt>
  <wgt id="8">2.54204e-06</wgt>
  <wgt id="9">1.87024e-06</wgt>
  <wgt id="10">4.45889e-06</wgt>
  <wgt id="11">2.8251e-06</wgt>
  <wgt id="12">1.95704e-06</wgt>
  <wgt id="13">2.8251e-06</wgt>
  <wgt id="14">2.83928e-06</wgt>
  <wgt id="15">2.81341e-06</wgt>
  <wgt id="16">2.82506e-06</wgt>
  <wgt id="17">2.82513e-06</wgt>
  <wgt id="18">2.8263e-06</wgt>
  <wgt id="19">2.82314e-06</wgt>
  <wgt id="20">2.82822e-06</wgt>
  <wgt id="21">2.82306e-06</wgt>
  <wgt id="22">2.81932e-06</wgt>
  <wgt id="23">2.83315e-06</wgt>
  <wgt id="24">2.79202e-06</wgt>
  <wgt id="25">2.84563e-06</wgt>
  <wgt id="26">2.83034e-06</wgt>
  <wgt id="27">2.81796e-06</wgt>
  <wgt id="28">2.82003e-06</wgt>
  <wgt id="29">2.8269e-06</wgt>
  <wgt id="30">2.74615e-06</wgt>
  <wgt id="31">2.9258e-06</wgt>
  <wgt id="32">2.8337e-06</wgt>
  <wgt id="33">2.81688e-06</wgt>
  <wgt id="34">2.94111e-06</wgt>
  <wgt id="35">2.63318e-06</wgt>
  <wgt id="36">2.74176e-06</wgt>
  <wgt id="37">2.87897e-06</wgt>
  <wgt id="38">2.77554e-06</wgt>
  <wgt id="39">2.84908e-06</wgt>
  <wgt id="40">2.80188e-06</wgt>
  <wgt id="41">2.85159e-06</wgt>
  <wgt id="42">2.79003e-06</wgt>
  <wgt id="43">2.8864e-06</wgt>
  <wgt id="44">2.80648e-06</wgt>
  <wgt id="45">2.83254e-06</wgt>
  <wgt id="46">2.83661e-06</wgt>
  <wgt id="47">2.81814e-06</wgt>
  <wgt id="48">2.85825e-06</wgt>
  <wgt id="49">2.80666e-06</wgt>
  <wgt id="50">2.81904e-06</wgt>
  <wgt id="51">2.87361e-06</wgt>
  <wgt id="52">2.83642e-06</wgt>
  <wgt id="53">2.82214e-06</wgt>
</rwgt>
</event>
<event>
 10      0 +2.8251000e-06 1.35167800e+02 7.54677100e-03 1.14093900e-01
        2 -1    0    0  501    0 +0.00000000000e+00 +0.00000000000e+00 +1.33202316340e+03  1.33202316340e+03  0.00000000000e+00 0.0000e+00 -1.0000e+00
        2 -1    0    0  502    0 +0.00000000000e+00 +0.00000000000e+00 -1.52025102490e+03  1.52025102490e+03  0.00000000000e+00 0.0000e+00 -1.0000e+00
       24  2    1    2    0    0 +5.18762160506e+01 +2.23335838153e+01 +1.26414507177e+03  1.26783127966e+03  7.83802300410e+01 0.0000e+00 0.0000e+00
       14  1    3    3    0    0 +1.66881221102e+01 -2.94106066342e+01 +4.85049294782e+02  4.86226588712e+02  0.00000000000e+00 0.0000e+00 -1.0000e+00
      -13  1    3    3    0    0 +3.51880939404e+01 +5.17441904495e+01 +7.79095776985e+02  7.81604690951e+02  0.00000000000e+00 0.0000e+00 1.0000e+00
       24  2    1    2    0    0 -1.01779140014e+01 +8.48485366362e+01 -7.58284513122e+02  7.67299550298e+02  8.03139648189e+01 0.0000e+00 0.0000e+00
       14  1    6    6    0    0 -3.71794957044e+01 +5.43443631350e+01 -6.09239476041e+02  6.12787372481e+02  0.00000000000e+00 0.0000e+00 -1.0000e+00
      -13  1    6    6    0    0 +2.70015817029e+01 +3.05041735013e+01 -1.49045037080e+02  1.54512177817e+02  0.00000000000e+00 0.0000e+00 1.0000e+00
        1  1    1    2  501    0 -5.37404984555e+00 -2.32881851842e+02 -6.29519265782e+02  6.71235683884e+02  0.00000000000e+00 0.0000e+00 -1.0000e+00
        1  1    1    2  502    0 -3.63242522036e+01 +1.25699731390e+02 -6.45691543635e+01  1.45907674455e+02  0.00000000000e+00 0.0000e+00 -1.0000e+00
#  0.1300000e+05  0.1300000e+05  0.1300000e+05  0.1300000e+05
<mgrwt>
<rscale>  2 0.12908014e+03</rscale>
<asrwt>0</asrwt>
<pdfrwt beam="1">  1        2 0.20492664e+00 0.98277413e+02</pdfrwt>
<pdfrwt beam="2">  1        2 0.23388477e+00 0.11817045e+03</pdfrwt>
<totfact> 0.54459421e-01</totfact>
</mgrwt>
<clustering>
<clus scale="   98.277">  1  3  2 -1</clus>
<clus scale="  118.170">  2  4  1 -1</clus>
<clus scale="  154.610">  1  6  2 -1</clus>
<clus scale="  154.610">  1  3  2 -1</clus>
</clustering>
<rwgt>
  <wgt id="1">5.59701e-06</wgt>
  <wgt id="2">3.55651e-06</wgt>
  <wgt id="3">2.46544e-06</wgt>
  <wgt id="4">4.44596e-06</wgt>
  <wgt id="5">2.8251e-06</wgt>
  <wgt id="6">1.95841e-06</wgt>
  <wgt id="7">3.65215e-06</wgt>
  <wgt id="8">2.32069e-06</wgt>
  <wgt id="9">1.60874e-06</wgt>
  <wgt id="10">2.8251e-06</wgt>
  <wgt id="11">2.8251e-06</wgt>
  <wgt id="12">2.8251e-06</wgt>
  <wgt id="13">2.8251e-06</wgt>
  <wgt id="14">2.82808e-06</wgt>
  <wgt id="15">2.82259e-06</wgt>
  <wgt id="16">2.80611e-06</wgt>
  <wgt id="17">2.8463e-06</wgt>
  <wgt id="18">2.81065e-06</wgt>
  <wgt id="19">2.84649e-06</wgt>
  <wgt id="20">2.81834e-06</wgt>
  <wgt id="21">2.82963e-06</wgt>
  <wgt id="22">2.83394e-06</wgt>
  <wgt id="23">2.81256e-06</wgt>
  <wgt id="24">2.87282e-06</wgt>
  <wgt id="25">2.79573e-06</wgt>
  <wgt id="26">2.82595e-06</wgt>
  <wgt id="27">2.82385e-06</wgt>
  <wgt id="28">2.87972e-06</wgt>
  <wgt id="29">2.80535e-06</wgt>
  <wgt id="30">2.83174e-06</wgt>
  <wgt id="31">2.81676e-06</wgt>
  <wgt id="32">2.82617e-06</wgt>
  <wgt id="33">2.82405e-06</wgt>
  <wgt id="34">2.78087e-06</wgt>
  <wgt id="35">2.90699e-06</wgt>
  <wgt id="36">2.84661e-06</wgt>
  <wgt id="37">2.81274e-06</wgt>
  <wgt id="38">2.81384e-06</wgt>
  <wgt id="39">2.83109e-06</wgt>
  <wgt id="40">2.82914e-06</wgt>
  <wgt id="41">2.82124e-06</wgt>
  <wgt id="42">2.85053e-06</wgt>
  <wgt id="43">2.78515e-06</wgt>
  <wgt id="44">2.83011e-06</wgt>
  <wgt id="45">2.82347e-06</wgt>
  <wgt id="46">2.82235e-06</wgt>
  <wgt id="47">2.82674e-06</wgt>
  <wgt id="48">2.8292e-06</wgt>
  <wgt id="49">2.82869e-06</wgt>
  <wgt id="50">2.81805e-06</wgt>
  <wgt id="51">2.83657e-06</wgt>
  <wgt id="52">2.84386e-06</wgt>
  <wgt id="53">2.82048e-06</wgt>
</rwgt>
</event>
<event>
 10      0 +2.8251000e-06 1.13754000e+03 7.54677100e-03 8.69233700e-02
        2 -1    0    0  502    0 +0.00000000000e+00 +0.00000000000e+00 +1.19013084140e+03  1.19013084140e+03  0.00000000000e+00 0.0000e+00 -1.0000e+00
        2 -1    0    0  501    0 +0.00000000000e+00 +0.00000000000e+00 -1.04151403850e+03  1.04151403850e+03  0.00000000000e+00 0.0000e+00 -1.0000e+00
       24  2    1    2    0    0 -1.68061588315e+02 -5.47315947087e+02 -4.11950451462e+02  7.09619814166e+02  7.78309886523e+01 0.0000e+00 0.0000e+00
        2  1    3    3  503    0 -1.99831299996e+01 -1.10786272969e+02 -4.83698113160e+01  1.22525762228e+02  0.00000000000e+00 0.0000e+00 -1.0000e+00
       -1  1    3    3    0  503 -1.48078458316e+02 -4.36529674119e+02 -3.63580640146e+02  5.87094051938e+02  0.00000000000e+00 0.0000e+00 1.0000e+00
       24  2    1    2    0    0 +2.72004541571e+02 +6.66667477689e+02 +4.11621698563e+02  8.33410251057e+02  8.19037691161e+01 0.0000e+00 0.0000e+00
       16  1    6    6    0    0 +1.44199918387e+02 +3.87826707076e+02 +1.91917192305e+02  4.56108956157e+02  0.00000000000e+00 0.0000e+00 -1.0000e+00
      -15  1    6    6    0    0 +1.27804623184e+02 +2.78840770613e+02 +2.19704506258e+02  3.77301294900e+02  1.77700000000e+00 0.0000e+00 1.0000e+00
        1  1    1    2  501    0 -4.60839754583e+01 -2.84491193466e+02 -1.62884413559e+02  3.31044263104e+02  0.00000000000e+00 0.0000e+00 -1.0000e+00
        1  1    1    2  502    0 -5.78589777979e+01 +1.65139662864e+02 +3.11829969358e+02  3.57570551573e+02  0.00000000000e+00 0.0000e+00 -1.0000e+00
#  0.1300000e+05  0.1300000e+05  0.1300000e+05  0.1300000e+05
<mgrwt>
<rscale>  2 0.11183001e+04</rscale>
<asrwt>0</asrwt>
<pdfrwt beam="1">  1        2 0.18309705e+00 0.11375398e+04</pdfrwt>
<pdfrwt beam="2">  1        2 0.16023293e+00 0.10625116e+04</pdfrwt>
<totfact> 0.53249869e-01</totfact>
</mgrwt>
<clustering>
<clus scale="  174.888">  3  6 -1 -1</clus>
<clus scale="  288.211">  4  5 -1 -1</clus>
<clus scale=" 1062.512">  2  3  1 -1</clus>
<clus scale=" 1137.540">  1  3  2 -1</clus>
</clustering>
<rwgt>
  <wgt id="1">4.52226e-06</wgt>
  <wgt id="2">3.24736e-06</wgt>
  <wgt id="3">2.44775e-06</wgt>
  <wgt id="4">3.93422e-06</wgt>
  <wgt id="5">2.8251e-06</wgt>
  <wgt id="6">2.12946e-06</wgt>
  <wgt id="7">3.47113e-06</wgt>
  <wgt id="8">2.49256e-06</wgt>
  <wgt id="9">1.87881e-06</wgt>
  <wgt id="10">2.8251e-06</wgt>
  <wgt id="11">2.8251e-06</wgt>
  <wgt id="12">2.8251e-06</wgt>
  <wgt id="13">2.8251e-06</wgt>
  <wgt id="14">2.828e-06</wgt>
  <wgt id="15">2.82264e-06</wgt>
  <wgt id="16">2.80926e-06</wgt>
  <wgt id="17">2.8427e-06</wgt>
  <wgt id="18">2.81108e-06</wgt>
  <wgt id="19">2.84584e-06</wgt>
  <wgt id="20">2.81575e-06</wgt>
  <wgt id="21">2.83129e-06</wgt>
  <wgt id="22">2.8332e-06</wgt>
  <wgt id="23">2.81346e-06</wgt>
  <wgt id="24">2.86974e-06</wgt>
  <wgt id="25">2.79753e-06</wgt>
  <wgt id="26">2.8253e-06</wgt>
  <wgt id="27">2.82473e-06</wgt>
  <wgt id="28">2.87873e-06</wgt>
  <wgt id="29">2.80573e-06</wgt>
  <wgt id="30">2.83103e-06</wgt>
  <wgt id="31">2.8177e-06</wgt>
  <wgt id="32">2.82723e-06</wgt>
  <wgt id="33">2.82303e-06</wgt>
  <wgt id="34">2.78435e-06</wgt>
  <wgt id="35">2.90053e-06</wgt>
  <wgt id="36">2.85095e-06</wgt>
  <wgt id="37">2.81013e-06</wgt>
  <wgt id="38">2.81209e-06</wgt>
  <wgt id="39">2.83174e-06</wgt>
  <wgt id="40">2.82741e-06</wgt>
  <wgt id="41">2.823e-06</wgt>
  <wgt id="42">2.85008e-06</wgt>
  <wgt id="43">2.7851e-06</wgt>
  <wgt id="44">2.83141e-06</wgt>
  <wgt id="45">2.82286e-06</wgt>
  <wgt id="46">2.82348e-06</wgt>
  <wgt id="47">2.82608e-06</wgt>
  <wgt id="48">2.82355e-06</wgt>
  <wgt id="49">2.83019e-06</wgt>
  <wgt id="50">2.81635e-06</wgt>
  <wgt id="51">2.83826e-06</wgt>
  <wgt id="52">2.84158e-06</wgt>
  <wgt id="53">2.82091e-06</wgt>
</rwgt>
</event>
<event>
 10      0 +2.8251000e-06 1.32085500e+02 7.54677100e-03 1.14905100e-01
        2 -1    0    0  502    0 +0.00000000000e+00 +0.00000000000e+00 +1.49456423660e+02  1.49456423660e+02  0.00000000000e+00 0.0000e+00 -1.0000e+00
        2 -1    0    0  501    0 +0.00000000000e+00 +0.00000000000e+00 -7.15514306740e+02  7.15514306740e+02  0.00000000000e+00 0.0000e+00 -1.0000e+00
       24  2    1    2    0    0 +3.37520999039e+01 +9.26985552991e+01 +4.78967029943e+01  1.36029116161e+02  8.04835379654e+01 0.0000e+00 0.0000e+00
        2  1    3    3  503    0 -7.37327656524e+00 +8.26507116801e+01 +4.28637207452e+01  9.33959522927e+01  0.00000000000e+00 0.0000e+00 -1.0000e+00
       -1  1    3    3    0  503 +4.11253764692e+01 +1.00478436190e+01 +5.03298224908e+00  4.26331638686e+01  0.00000000000e+00 0.0000e+00 1.0000e+00
       24  2    1    2    0    0 +4.32013305852e+01 -4.00635568902e+01 -2.51709373555e+02  2.70519892945e+02  7.96991856231e+01 0.0000e+00 0.0000e+00
       14  1    6    6    0    0 -8.15797865620e+00 +1.38980169457e+01 -1.37894971495e+01  2.12098496556e+01  0.00000000000e+00 0.0000e+00 -1.0000e+00
      -13  1    6    6    0    0 +5.13593092414e+01 -5.39615738359e+01 -2.37919876405e+02  2.49310043290e+02  0.00000000000e+00 0.0000e+00 1.0000e+00
        1  1    1    2  501    0 +1.64031010426e+01 -1.47087333299e+02 -1.98152465517e+02  2.47321945915e+02  0.00000000000e+00 0.0000e+00 -1.0000e+00
        1  1    1    2  502    0 -9.33565315318e+01 +9.44523348900e+01 -1.64092747003e+02  2.11099775378e+02  0.00000000000e+00 0.0000e+00 -1.0000e+00
#  0.1300000e+05  0.1300000e+05  0.1300000e+05  0.1300000e+05
<mgrwt>
<rscale>  2 0.12300029e+03</rscale>
<asrwt>0</asrwt>
<pdfrwt beam="1">  1        2 0.22993296e-01 0.13208554e+03</pdfrwt>
<pdfrwt beam="2">  1        2 0.11007912e+00 0.99325045e+02</pdfrwt>
<totfact> 0.20138683e+01</totfact>
</mgrwt>
<clustering>
<clus scale="   99.325">  2  4  1 -1</clus>
<clus scale="  108.507">  2  6  1 -1</clus>
<clus scale="  104.783">  2  5  1 -1</clus>
<clus scale="  132.086">  1  3  2 -1</clus>
</clustering>
<rwgt>
  <wgt id="1">4.41771e-06</wgt>
  <wgt id="2">2.79688e-06</wgt>
  <wgt id="3">1.93394e-06</wgt>
  <wgt id="4">4.46229e-06</wgt>
  <wgt id="5">2.8251e-06</wgt>
  <wgt id="6">1.95345e-06</wgt>
  <wgt id="7">4.41676e-06</wgt>
  <wgt id="8">2.79628e-06</wgt>
  <wgt id="9">1.93352e-06</wgt>
  <wgt id="10">2.8251e-06</wgt>
  <wgt id="11">2.8251e-06</wgt>
  <wgt id="12">2.8251e-06</wgt>
  <wgt id="13">2.8251e-06</wgt>
  <wgt id="14">2.82856e-06</wgt>
  <wgt id="15">2.82219e-06</wgt>
  <wgt id="16">2.83018e-06</wgt>
  <wgt id="17">2.81919e-06</wgt>
  <wgt id="18">2.81472e-06</wgt>
  <wgt id="19">2.84034e-06</wgt>
  <wgt id="20">2.81578e-06</wgt>
  <wgt id="21">2.83132e-06</wgt>
  <wgt id="22">2.82983e-06</wgt>
  <wgt id="23">2.81829e-06</wgt>
  <wgt id="24">2.85226e-06</wgt>
  <wgt id="25">2.80819e-06</wgt>
  <wgt id="26">2.82418e-06</wgt>
  <wgt id="27">2.82628e-06</wgt>
  <wgt id="28">2.85176e-06</wgt>
  <wgt id="29">2.81527e-06</wgt>
  <wgt id="30">2.83369e-06</wgt>
  <wgt id="31">2.81339e-06</wgt>
  <wgt id="32">2.83021e-06</wgt>
  <wgt id="33">2.8201e-06</wgt>
  <wgt id="34">2.7964e-06</wgt>
  <wgt id="35">2.8769e-06</wgt>
  <wgt id="36">2.83389e-06</wgt>
  <wgt id="37">2.82057e-06</wgt>
  <wgt id="38">2.81819e-06</wgt>
  <wgt id="39">2.82827e-06</wgt>
  <wgt id="40">2.82555e-06</wgt>
  <wgt id="41">2.82532e-06</wgt>
  <wgt id="42">2.84154e-06</wgt>
  <wgt id="43">2.79149e-06</wgt>
  <wgt id="44">2.8346e-06</wgt>
  <wgt id="45">2.82128e-06</wgt>
  <wgt id="46">2.82279e-06</wgt>
  <wgt id="47">2.82701e-06</wgt>
  <wgt id="48">2.7942e-06</wgt>
  <wgt id="49">2.83979e-06</wgt>
  <wgt id="50">2.81215e-06</wgt>
  <wgt id="51">2.83342e-06</wgt>
  <wgt id="52">2.82475e-06</wgt>
  <wgt id="53">2.82487e-06</wgt>
</rwgt>
</event>
<event>
 11      0 +2.8251000e-06 2.45899200e+02 7.54677100e-03 1.04781500e-01
        2 -1    0    0  503    0 +0.00000000000e+00 +0.00000000000e+00 +1.30753207330e+03  1.30753207330e+03  0.00000000000e+00 0.0000e+00 -1.0000e+00
       21 -1    0    0  502  503 +0.00000000000e+00 +0.00000000000e+00 -1.61638023630e+02  1.61638023630e+02  0.00000000000e+00 0.0000e+00 1.0000e+00
       24  2    1    2    0    0 +2.26681560562e+01 -1.45103972762e+01 +4.15772606121e+02  4.24076383660e+02  7.90539198876e+01 0.0000e+00 0.0000e+00
       12  1    3    3    0    0 +4.74998005349e+01 +2.93169961827e+00 +3.22479009639e+02  3.25971682161e+02  0.00000000000e+00 0.0000e+00 -1.0000e+00
      -11  1    3    3    0    0 -2.48316444787e+01 -1.74420968945e+01 +9.32935964823e+01  9.81047014989e+01  0.00000000000e+00 0.0000e+00 1.0000e+00
       24  2    1    2    0    0 -3.95707521914e+01 +4.02771343035e+01 +3.45061846771e+01  1.05990229075e+02  8.27958930247e+01 0.0000e+00 0.0000e+00
       14  1    6    6    0    0 -6.93817472271e+00 -7.91098644146e+00 +4.55536863138e+01  4.67531850437e+01  0.00000000000e+00 0.0000e+00 -1.0000e+00
      -13  1    6    6    0    0 -3.26325774687e+01 +4.81881207450e+01 -1.10475016367e+01  5.92370440315e+01  0.00000000000e+00 0.0000e+00 1.0000e+00
        1  1    1    2  501    0 -2.60963541255e+01 -1.65353557064e+02 +6.28498514177e+02  6.50410025180e+02  0.00000000000e+00 0.0000e+00 -1.0000e+00
        1  1    1    2  502    0 +1.40023438319e+02 +7.71743294596e+01 +6.69349244010e+01  1.73328371915e+02  0.00000000000e+00 0.0000e+00 -1.0000e+00
       -2  1    1    2    0  501 -9.70244880578e+01 +6.24124905768e+01 +1.81820294079e-01  1.15365087100e+02  0.00000000000e+00 0.0000e+00 1.0000e+00
#  0.1300000e+05  0.1300000e+05  0.1300000e+05  0.1615595e+03  0.1300000e+05
<mgrwt>
<rscale>  2 0.23790042e+03</rscale>
<asrwt>  1 0.16155950e+03</asrwt>
<pdfrwt beam="1">  2       21       -1 0.24867388e-01 0.14288744e-01 0.16155950e+03 0.24589923e+03</pdfrwt>
<pdfrwt beam="2">  1        2 0.20115878e+00 0.24589923e+03</pdfrwt>
<totfact> 0.46607945e+00</totfact>
</mgrwt>
<clustering>
<clus scale="  115.365">  4  7 -1 -1</clus>
<clus scale="  161.559">  2  6  1 -1</clus>
<clus scale="  156.356">  3  5 -1 -1</clus>
<clus scale="  215.432">  2  4  1 -1</clus>
<clus scale="  245.899">  2  3  1 -1</clus>
</clustering>
<rwgt>
  <wgt id="1">4.65272e-06</wgt>
  <wgt id="2">3.08682e-06</wgt>
  <wgt id="3">2.20166e-06</wgt>
  <wgt id="4">4.25824e-06</wgt>
  <wgt id="5">2.8251e-06</wgt>
  <wgt id="6">2.01499e-06</wgt>
  <wgt id="7">4.10233e-06</wgt>
  <wgt id="8">2.72167e-06</wgt>
  <wgt id="9">1.94122e-06</wgt>
  <wgt id="10">3.51436e-06</wgt>
  <wgt id="11">2.8251e-06</wgt>
  <wgt id="12">2.36515e-06</wgt>
  <wgt id="13">2.8251e-06</wgt>
  <wgt id="14">2.83182e-06</wgt>
  <wgt id="15">2.81951e-06</wgt>
  <wgt id="16">2.81746e-06</wgt>
  <wgt id="17">2.83358e-06</wgt>
  <wgt id="18">2.81926e-06</wgt>
  <wgt id="19">2.83389e-06</wgt>
  <wgt id="20">2.82236e-06</wgt>
  <wgt id="21">2.82694e-06</wgt>
  <wgt id="22">2.82748e-06</wgt>
  <wgt id="23">2.82171e-06</wgt>
  <wgt id="24">2.83699e-06</wgt>
  <wgt id="25">2.81772e-06</wgt>
  <wgt id="26">2.8284e-06</wgt>
  <wgt id="27">2.82056e-06</wgt>
  <wgt id="28">2.84845e-06</wgt>
  <wgt id="29">2.81662e-06</wgt>
  <wgt id="30">2.83229e-06</wgt>
  <wgt id="31">2.81452e-06</wgt>
  <wgt id="32">2.82314e-06</wgt>
  <wgt id="33">2.82689e-06</wgt>
  <wgt id="34">2.80764e-06</wgt>
  <wgt id="35">2.85719e-06</wgt>
  <wgt id="36">2.83622e-06</wgt>
  <wgt id="37">2.81873e-06</wgt>
  <wgt id="38">2.81918e-06</wgt>
  <wgt id="39">2.8282e-06</wgt>
  <wgt id="40">2.82456e-06</wgt>
  <wgt id="41">2.82565e-06</wgt>
  <wgt id="42">2.82683e-06</wgt>
  <wgt id="43">2.82308e-06</wgt>
  <wgt id="44">2.82754e-06</wgt>
  <wgt id="45">2.82437e-06</wgt>
  <wgt id="46">2.82663e-06</wgt>
  <wgt id="47">2.82423e-06</wgt>
  <wgt id="48">2.82358e-06</wgt>
  <wgt id="49">2.82845e-06</wgt>
  <wgt id="50">2.83638e-06</wgt>
  <wgt id="51">2.80515e-06</wgt>
  <wgt id="52">2.83177e-06</wgt>
  <wgt id="53">2.82352e-06</wgt>
</rwgt>
</event>
<event>
 11      0 +2.8251000e-06 2.59697100e+02 7.54677100e-03 1.03992600e-01
        2 -1    0    0  503    0 +0.00000000000e+00 +0.00000000000e+00 +2.28364453550e+03  2.28364453550e+03  0.00000000000e+00 0.0000e+00 -1.0000e+00
        2 -1    0    0  502    0 +0.00000000000e+00 +0.00000000000e+00 -1.14915875890e+02  1.14915875890e+02  0.00000000000e+00 0.0000e+00 -1.0000e+00
       24  2    1    2    0    0 +5.91631079977e+01 +1.62238197000e+02 +3.63942584127e+01  1.95258755504e+02  8.35459971625e+01 0.0000e+00 0.0000e+00
        2  1    3    3  504    0 -1.46087022251e+01 +7.69785619490e+01 +6.52315869283e+00  7.86235637692e+01  0.00000000000e+00 0.0000e+00 -1.0000e+00
       -1  1    3    3    0  504 +7.37718102228e+01 +8.52596350509e+01 +2.98710997199e+01  1.16635191735e+02  0.00000000000e+00 0.0000e+00 1.0000e+00
       24  2    1    2    0    0 -7.95250337733e+01 -8.18851524158e+00 +1.00547898298e+03  1.01197443152e+03  8.19327898582e+01 0.0000e+00 0.0000e+00
        4  1    6    6  505    0 -7.71533855420e+01 -3.48689716779e+01 +6.50598510554e+02  6.56084531156e+02  0.00000000000e+00 0.0000e+00 -1.0000e+00
       -3  1    6    6    0  505 -2.37164823127e+00 +2.66804564363e+01 +3.54880472426e+02  3.55889900363e+02  0.00000000000e+00 0.0000e+00 1.0000e+00
       21  1    1    2  503  501 +6.11700184266e+00 -7.66191976753e+01 +9.38118282381e+02  9.41261829089e+02  0.00000000000e+00 0.0000e+00 -1.0000e+00
        1  1    1    2  501    0 +4.08706552338e+01 -3.46695970611e+00 -4.68030418538e+00  4.12835986333e+01  0.00000000000e+00 0.0000e+00 -1.0000e+00
        1  1    1    2  502    0 -2.66257313009e+01 -7.39635243768e+01 +1.93417440021e+02  2.08781796644e+02  0.00000000000e+00 0.0000e+00 -1.0000e+00
#  0.1300000e+05  0.1300000e+05  0.7686299e+02  0.1300000e+05  0.1300000e+05
<mgrwt>
<rscale>  2 0.25183835e+03</rscale>
<asrwt>  1 0.76862990e+02</asrwt>
<pdfrwt beam="1">  2        2        2 0.35132993e+00 0.20195688e+00 0.76862990e+02 0.25969714e+03</pdfrwt>
<pdfrwt beam="2">  1        2 0.17679366e-01 0.22966031e+03</pdfrwt>
<totfact> 0.37570098e-01</totfact>
</mgrwt>
<clustering>
<clus scale="   42.703">  3  6 -1 -1</clus>
<clus scale="   76.863">  1  5  2 -1</clus>
<clus scale="   89.045">  4  7 -1 -1</clus>
<clus scale="  229.660">  2  3  1 -1</clus>
<clus scale="  259.697">  1  3  2 -1</clus>
</clustering>
<rwgt>
  <wgt id="1">4.44863e-06</wgt>
  <wgt id="2">2.96191e-06</wgt>
  <wgt id="3">2.11769e-06</wgt>
  <wgt id="4">4.24314e-06</wgt>
  <wgt id="5">2.8251e-06</wgt>
  <wgt id="6">2.01987e-06</wgt>
  <wgt id="7">4.05165e-06</wgt>
  <wgt id="8">2.69761e-06</wgt>
  <wgt id="9">1.92871e-06</wgt>
  <wgt id="10">3.62423e-06</wgt>
  <wgt id="11">2.8251e-06</wgt>
  <wgt id="12">2.31927e-06</wgt>
  <wgt id="13">2.8251e-06</wgt>
  <wgt id="14">2.82907e-06</wgt>
  <wgt id="15">2.82172e-06</wgt>
  <wgt id="16">2.81905e-06</wgt>
  <wgt id="17">2.83174e-06</wgt>
  <wgt id="18">2.81326e-06</wgt>
  <wgt id="19">2.84267e-06</wgt>
  <wgt id="20">2.8227e-06</wgt>
  <wgt id="21">2.82664e-06</wgt>
  <wgt id="22">2.83165e-06</wgt>
  <wgt id="23">2.81577e-06</wgt>
  <wgt id="24">2.86033e-06</wgt>
  <wgt id="25">2.80344e-06</wgt>
  <wgt id="26">2.82624e-06</wgt>
  <wgt id="27">2.82358e-06</wgt>
  <wgt id="28">2.84441e-06</wgt>
  <wgt id="29">2.81787e-06</wgt>
  <wgt id="30">2.83431e-06</wgt>
  <wgt id="31">2.81242e-06</wgt>
  <wgt id="32">2.82351e-06</wgt>
  <wgt id="33">2.82663e-06</wgt>
  <wgt id="34">2.78941e-06</wgt>
  <wgt id="35">2.88996e-06</wgt>
  <wgt id="36">2.82775e-06</wgt>
  <wgt id="37">2.82453e-06</wgt>
  <wgt id="38">2.8213e-06</wgt>
  <wgt id="39">2.82753e-06</wgt>
  <wgt id="40">2.83432e-06</wgt>
  <wgt id="41">2.81637e-06</wgt>
  <wgt id="42">2.84014e-06</wgt>
  <wgt id="43">2.79657e-06</wgt>
  <wgt id="44">2.83191e-06</wgt>
  <wgt id="45">2.82248e-06</wgt>
  <wgt id="46">2.82006e-06</wgt>
  <wgt id="47">2.82835e-06</wgt>
  <wgt id="48">2.81813e-06</wgt>
  <wgt id="49">2.83207e-06</wgt>
  <wgt id="50">2.81532e-06</wgt>
  <wgt id="51">2.82954e-06</wgt>
  <wgt id="52">2.83266e-06</wgt>
  <wgt id="53">2.82335e-06</wgt>
</rwgt>
</event>
<event>
 10      0 +2.8251000e-06 1.25047900e+02 7.54677100e-03 1.15884500e-01
        2 -1    0    0  501    0 +0.00000000000e+00 +0.00000000000e+00 +5.82593802810e+01  5.82593802810e+01  0.00000000000e+00 0.0000e+00 -1.0000e+00
        2 -1    0    0  502    0 +0.00000000000e+00 +0.00000000000e+00 -9.84619732940e+02  9.84619732940e+02  0.00000000000e+00 0.0000e+00 -1.0000e+00
       24  2    1    2    0    0 -3.93229049176e+01 -3.28168314737e+01 -1.58640117927e+02  1.85122728047e+02  8.05015660998e+01 0.0000e+00 0.0000e+00
        4  1    3    3  503    0 -5.86071409022e+01 -2.10325040440e+01 -1.47123737622e+02  1.59757808457e+02  0.00000000000e+00 0.0000e+00 -1.0000e+00
       -3  1    3    3    0  503 +1.92842359846e+01 -1.17843274297e+01 -1.15163803050e+01  2.53649195901e+01  0.00000000000e+00 0.0000e+00 1.0000e+00
       24  2    1    2    0    0 -3.16024276727e+01 +3.44039963405e+01 -4.20172417760e+02  4.30416057630e+02  8.08132020145e+01 0.0000e+00 0.0000e+00
        2  1    6    6  504    0 -4.38453780173e+01 +4.55440158291e+01 -3.96631706552e+02  4.01638376146e+02  0.00000000000e+00 0.0000e+00 -1.0000e+00
       -1  1    6    6    0  504 +1.22429503446e+01 -1.11400194886e+01 -2.35407112086e+01  2.87776814833e+01  0.00000000000e+00 0.0000e+00 1.0000e+00
        1  1    1    2  501    0 -3.07338642390e+01 -9.23658378033e+01 -2.20435529981e+02  2.40972698209e+02  0.00000000000e+00 0.0000e+00 -1.0000e+00
        1  1    1    2  502    0 +1.01659196829e+02 +9.07786729365e+01 -1.27112286991e+02  1.86367629335e+02  0.00000000000e+00 0.0000e+00 -1.0000e+00
#  0.1300000e+05  0.1300000e+05  0.1300000e+05  0.1300000e+05
<mgrwt>
<rscale>  2 0.11614420e+03</rscale>
<asrwt>0</asrwt>
<pdfrwt beam="1">  1        2 0.89629816e-02 0.12504791e+03</pdfrwt>
<pdfrwt beam="2">  1        2 0.15147996e+00 0.93059512e+02</pdfrwt>
<totfact> 0.42524358e+01</totfact>
</mgrwt>
<clustering>
<clus scale="   93.060">  2  4  1 -1</clus>
<clus scale="   89.701">  2  5  1 -1</clus>
<clus scale="   95.759">  2  6  1 -1</clus>
<clus scale="  125.048">  1  3  2 -1</clus>
</clustering>
<rwgt>
  <wgt id="1">4.31498e-06</wgt>
  <wgt id="2">2.71959e-06</wgt>
  <wgt id="3">1.87478e-06</wgt>
  <wgt id="4">4.48238e-06</wgt>
  <wgt id="5">2.8251e-06</wgt>
  <wgt id="6">1.94751e-06</wgt>
  <wgt id="7">4.5218e-06</wgt>
  <wgt id="8">2.84994e-06</wgt>
  <wgt id="9">1.96464e-06</wgt>
  <wgt id="10">2.8251e-06</wgt>
  <wgt id="11">2.8251e-06</wgt>
  <wgt id="12">2.8251e-06</wgt>
  <wgt id="13">2.8251e-06</wgt>
  <wgt id="14">2.82816e-06</wgt>
  <wgt id="15">2.82261e-06</wgt>
  <wgt id="16">2.82882e-06</wgt>
  <wgt id="17">2.82082e-06</wgt>
  <wgt id="18">2.81621e-06</wgt>
  <wgt id="19">2.8383e-06</wgt>
  <wgt id="20">2.82018e-06</wgt>
  <wgt id="21">2.82844e-06</wgt>
  <wgt id="22">2.82891e-06</wgt>
  <wgt id="23">2.81968e-06</wgt>
  <wgt id="24">2.84609e-06</wgt>
  <wgt id="25">2.81208e-06</wgt>
  <wgt id="26">2.82669e-06</wgt>
  <wgt id="27">2.82292e-06</wgt>
  <wgt id="28">2.84604e-06</wgt>
  <wgt id="29">2.8174e-06</wgt>
  <wgt id="30">2.83673e-06</wgt>
  <wgt id="31">2.80739e-06</wgt>
  <wgt id="32">2.82868e-06</wgt>
  <wgt id="33">2.8217e-06</wgt>
  <wgt id="34">2.79275e-06</wgt>
  <wgt id="35">2.88298e-06</wgt>
  <wgt id="36">2.84194e-06</wgt>
  <wgt id="37">2.81468e-06</wgt>
  <wgt id="38">2.81925e-06</wgt>
  <wgt id="39">2.82782e-06</wgt>
  <wgt id="40">2.82706e-06</wgt>
  <wgt id="41">2.82501e-06</wgt>
  <wgt id="42">2.83705e-06</wgt>
  <wgt id="43">2.80078e-06</wgt>
  <wgt id="44">2.83125e-06</wgt>
  <wgt id="45">2.82278e-06</wgt>
  <wgt id="46">2.82022e-06</wgt>
  <wgt id="47">2.82849e-06</wgt>
  <wgt id="48">2.81018e-06</wgt>
  <wgt id="49">2.83291e-06</wgt>
  <wgt id="50">2.80976e-06</wgt>
  <wgt id="51">2.83052e-06</wgt>
  <wgt id="52">2.83007e-06</wgt>
  <wgt id="53">2.8237e-06</wgt>
</rwgt>
</event>
<event>
 12      0 +2.8251000e-06 3.19648600e+02 7.54677100e-03 1.02611900e-01
        2 -1    0    0  504    0 +0.00000000000e+00 +0.00000000000e+00 +1.51489765960e+03  1.51489765960e+03  0.00000000000e+00 0.0000e+00 -1.0000e+00
       21 -1    0    0  501  503 +0.00000000000e+00 +0.00000000000e+00 -8.15932500680e+02  8.15932500680e+02  0.00000000000e+00 0.0000e+00 -1.0000e+00
       24  2    1    2    0    0 +1.00668362694e+02 -1.57088210920e+02 +1.89208013688e+02  2.77131655968e+02  7.86858121785e+01 0.0000e+00 0.0000e+00
        4  1    3    3  505    0 +6.95816306595e+01 -4.39501784023e+01 +5.56136374829e+01  9.93282345606e+01  0.00000000000e+00 0.0000e+00 -1.0000e+00
       -3  1    3    3    0  505 +3.10867320349e+01 -1.13138032518e+02 +1.33594376205e+02  1.77803421407e+02  0.00000000000e+00 0.0000e+00 1.0000e+00
       24  2    1    2    0    0 +2.90227142297e+00 +6.96065525347e+01 +1.27911424361e+02  1.66211693271e+02  8.00718375141e+01 0.0000e+00 0.0000e+00
       12  1    6    6    0    0 +2.04363189861e+01 -3.32556122277e+00 +6.53012235709e+01  6.85051260200e+01  0.00000000000e+00 0.0000e+00 -1.0000e+00
      -11  1    6    6    0    0 -1.75340475631e+01 +7.29321137575e+01 +6.26102007901e+01  9.77065672514e+01  0.00000000000e+00 0.0000e+00 1.0000e+00
       21  1    1    2  504  502 -6.32851155601e-02 +6.90300800053e+01 +1.06135891953e+01  6.98412788124e+01  0.00000000000e+00 0.0000e+00 1.0000e+00
        1  1    1    2  501    0 +1.54184610795e+02 -4.36156695243e+02 +1.05364804069e+02  4.74454738566e+02  0.00000000000e+00 0.0000e+00 -1.0000e+00
        3  1    1    2  502    0 -9.48530366205e+01 +4.48964363327e+02 +7.23874133028e+02  8.57064675833e+02  0.00000000000e+00 0.0000e+00 -1.0000e+00
       -4  1    1    2    0  503 -1.62838923176e+02 +5.64391029606e+00 -4.58006805420e+02  4.86126117830e+02  0.00000000000e+00 0.0000e+00 1.0000e+00
#  0.1300000e+05  0.1300000e+05  0.7989565e+02  0.1300000e+05  0.1300000e+05  0.1629377e+03
<mgrwt>
<rscale>  2 0.27884259e+03</rscale>
<asrwt>  2 0.79895646e+02 0.16293767e+03</asrwt>
<pdfrwt beam="1">  2       21        4 0.12552808e+00 0.49784107e-01 0.16293767e+03 0.31964864e+03</pdfrwt>
<pdfrwt beam="2">  1        2 0.23306118e+00 0.10615132e+03</pdfrwt>
<totfact> 0.12817819e-02</totfact>
</mgrwt>
<clustering>
<clus scale="   79.896">  5  7 -1 -1</clus>
<clus scale="  106.151">  1  4  2 -1</clus>
<clus scale="  162.938">  2  8  1 -1</clus>
<clus scale="  183.308">  2  3  1 -1</clus>
<clus scale="  518.013">  1  6  2 -1</clus>
<clus scale="  557.398">  2  3  1 -1</clus>
</clustering>
<rwgt>
  <wgt id="1">5.0871e-06</wgt>
  <wgt id="2">3.40812e-06</wgt>
  <wgt id="3">2.44705e-06</wgt>
  <wgt id="4">4.21686e-06</wgt>
  <wgt id="5">2.8251e-06</wgt>
  <wgt id="6">2.02844e-06</wgt>
  <wgt id="7">3.90427e-06</wgt>
  <wgt id="8">2.61568e-06</wgt>
  <wgt id="9">1.87808e-06</wgt>
  <wgt id="10">4.49871e-06</wgt>
  <wgt id="11">2.8251e-06</wgt>
  <wgt id="12">1.94424e-06</wgt>
  <wgt id="13">2.8251e-06</wgt>
  <wgt id="14">2.83259e-06</wgt>
  <wgt id="15">2.81867e-06</wgt>
  <wgt id="16">2.81339e-06</wgt>
  <wgt id="17">2.838e-06</wgt>
  <wgt id="18">2.81718e-06</wgt>
  <wgt id="19">2.83652e-06</wgt>
  <wgt id="20">2.82291e-06</wgt>
  <wgt id="21">2.82626e-06</wgt>
  <wgt id="22">2.82786e-06</wgt>
  <wgt id="23">2.82078e-06</wgt>
  <wgt id="24">2.8399e-06</wgt>
  <wgt id="25">2.81565e-06</wgt>
  <wgt id="26">2.82563e-06</wgt>
  <wgt id="27">2.8241e-06</wgt>
  <wgt id="28">2.85222e-06</wgt>
  <wgt id="29">2.81502e-06</wgt>
  <wgt id="30">2.7956e-06</wgt>
  <wgt id="31">2.86188e-06</wgt>
  <wgt id="32">2.82979e-06</wgt>
  <wgt id="33">2.82026e-06</wgt>
  <wgt id="34">2.84309e-06</wgt>
  <wgt id="35">2.79648e-06</wgt>
  <wgt id="36">2.80377e-06</wgt>
  <wgt id="37">2.83928e-06</wgt>
  <wgt id="38">2.80102e-06</wgt>
  <wgt id="39">2.83707e-06</wgt>
  <wgt id="40">2.81857e-06</wgt>
  <wgt id="41">2.83167e-06</wgt>
  <wgt id="42">2.82597e-06</wgt>
  <wgt id="43">2.82555e-06</wgt>
  <wgt id="44">2.82112e-06</wgt>
  <wgt id="45">2.82687e-06</wgt>
  <wgt id="46">2.82673e-06</wgt>
  <wgt id="47">2.82387e-06</wgt>
  <wgt id="48">2.84074e-06</wgt>
  <wgt id="49">2.81995e-06</wgt>
  <wgt id="50">2.82609e-06</wgt>
  <wgt id="51">2.84565e-06</wgt>
  <wgt id="52">2.83976e-06</wgt>
  <wgt id="53">2.8213e-06</wgt>
</rwgt>
</event>
<event>
 11      0 +2.8251000e-06 2.17908300e+02 7.54677100e-03 1.09214600e-01
        2 -1    0    0  501    0 +0.00000000000e+00 +0.00000000000e+00 +1.34135751040e+03  1.34135751040e+03  0.00000000000e+00 0.0000e+00 -1.0000e+00
        2 -1    0    0  503    0 +0.00000000000e+00 +0.00000000000e+00 -2.47161689350e+02  2.47161689350e+02  0.00000000000e+00 0.0000e+00 -1.0000e+00
       24  2    1    2    0    0 +1.89733039604e+02 -8.32829296231e+01 +3.43192914149e+01  2.25852951032e+02  8.30485944659e+01 0.0000e+00 0.0000e+00
       16  1    3    3    0    0 +1.88941382167e+02 -6.27943695498e+01 +1.85090282666e+01  1.99961403450e+02  0.00000000000e+00 0.0000e+00 -1.0000e+00
      -15  1    3    3    0    0 +7.91657436773e-01 -2.04885600733e+01 +1.58102631483e+01  2.58915475820e+01  1.77700000000e+00 0.0000e+00 1.0000e+00
       24  2    1    2    0    0 -4.45844868006e+01 +8.57556408986e-01 +1.36173845988e+02  1.64813668734e+02  8.14353559835e+01 0.0000e+00 0.0000e+00
        2  1    6    6  504    0 -4.74434431951e+01 -1.99933620528e+01 +1.34037448237e+02  1.43585000464e+02  0.00000000000e+00 0.0000e+00 -1.0000e+00
       -1  1    6    6    0  504 +2.85895639450e+00 +2.08509184618e+01 +2.13639775166e+00  2.12286682706e+01  0.00000000000e+00 0.0000e+00 1.0000e+00
       21  1    1    2  503  502 +3.55121489748e+01 +1.09701007423e+02 +7.41922168899e+01  1.37112759441e+02  0.00000000000e+00 0.0000e+00 -1.0000e+00
        1  1    1    2  501    0 -1.89839585327e+02 -1.21343185565e+02 +9.17212171905e+02  9.44479436055e+02  0.00000000000e+00 0.0000e+00 -1.0000e+00
        1  1    1    2  502    0 +9.17888354907e+00 +9.40675513565e+01 -6.77017051479e+01  1.16260384488e+02  0.00000000000e+00 0.0000e+00 -1.0000e+00
#  0.1300000e+05  0.1300000e+05  0.1227635e+03  0.1300000e+05  0.1300000e+05
<mgrwt>
<rscale>  2 0.17547213e+03</rscale>
<asrwt>  1 0.12276347e+03</asrwt>
<pdfrwt beam="1">  1        2 0.20636269e+00 0.91624387e+02</pdfrwt>
<pdfrwt beam="2">  2        2        2 0.38024875e-01 0.24782243e-01 0.12276347e+03 0.21790833e+03</pdfrwt>
<totfact> 0.52843403e-01</totfact>
</mgrwt>
<clustering>
<clus scale="   91.624">  1  4  2 -1</clus>
<clus scale="   95.510">  1  7  2 -1</clus>
<clus scale="  122.763">  2  5  1 -1</clus>
<clus scale="  202.526">  1  6  2 -1</clus>
<clus scale="  217.908">  1  3  2 -1</clus>
</clustering>
<rwgt>
  <wgt id="1">4.71941e-06</wgt>
  <wgt id="2">3.06799e-06</wgt>
  <wgt id="3">2.1587e-06</wgt>
  <wgt id="4">4.34577e-06</wgt>
  <wgt id="5">2.8251e-06</wgt>
  <wgt id="6">1.98779e-06</wgt>
  <wgt id="7">4.05396e-06</wgt>
  <wgt id="8">2.6354e-06</wgt>
  <wgt id="9">1.85431e-06</wgt>
  <wgt id="10">3.55081e-06</wgt>
  <wgt id="11">2.8251e-06</wgt>
  <wgt id="12">2.34907e-06</wgt>
  <wgt id="13">2.8251e-06</wgt>
  <wgt id="14">2.82844e-06</wgt>
  <wgt id="15">2.82233e-06</wgt>
  <wgt id="16">2.82139e-06</wgt>
  <wgt id="17">2.82914e-06</wgt>
  <wgt id="18">2.81318e-06</wgt>
  <wgt id="19">2.84287e-06</wgt>
  <wgt id="20">2.81684e-06</wgt>
  <wgt id="21">2.83068e-06</wgt>
  <wgt id="22">2.83159e-06</wgt>
  <wgt id="23">2.81597e-06</wgt>
  <wgt id="24">2.86082e-06</wgt>
  <wgt id="25">2.8031e-06</wgt>
  <wgt id="26">2.82466e-06</wgt>
  <wgt id="27">2.82578e-06</wgt>
  <wgt id="28">2.8627e-06</wgt>
  <wgt id="29">2.81143e-06</wgt>
  <wgt id="30">2.83155e-06</wgt>
  <wgt id="31">2.81673e-06</wgt>
  <wgt id="32">2.8291e-06</wgt>
  <wgt id="33">2.82127e-06</wgt>
  <wgt id="34">2.79134e-06</wgt>
  <wgt id="35">2.88691e-06</wgt>
  <wgt id="36">2.8337e-06</wgt>
  <wgt id="37">2.82069e-06</wgt>
  <wgt id="38">2.81716e-06</wgt>
  <wgt id="39">2.8291e-06</wgt>
  <wgt id="40">2.82682e-06</wgt>
  <wgt id="41">2.82377e-06</wgt>
  <wgt id="42">2.84531e-06</wgt>
  <wgt id="43">2.7883e-06</wgt>
  <wgt id="44">2.83303e-06</wgt>
  <wgt id="45">2.82209e-06</wgt>
  <wgt id="46">2.82302e-06</wgt>
  <wgt id="47">2.82677e-06</wgt>
  <wgt id="48">2.80398e-06</wgt>
  <wgt id="49">2.8373e-06</wgt>
  <wgt id="50">2.81594e-06</wgt>
  <wgt id="51">2.83466e-06</wgt>
  <wgt id="52">2.83052e-06</wgt>
  <wgt id="53">2.82366e-06</wgt>
</rwgt>
</event>
<event>
 10      0 +2.8251000e-06 2.67212800e+02 7.54677100e-03 1.04592900e-01
        2 -1    0    0  501    0 +0.00000000000e+00 +0.00000000000e+00 +1.30249196430e+03  1.30249196430e+03  0.00000000000e+00 0.0000e+00 -1.0000e+00
        2 -1    0    0  502    0 +0.00000000000e+00 +0.00000000000e+00 -3.97810923360e+01  3.97810923360e+01  0.00000000000e+00 0.0000e+00 -1.0000e+00
       24  2    1    2    0    0 -1.07409449909e+01 +2.13589791170e+00 +7.76210189032e+01  1.12084599297e+02  8.01124513721e+01 0.0000e+00 0.0000e+00
        4  1    3    3  503    0 -4.44248931403e+01 +8.06795179743e+00 +5.44455602610e+01  7.07317609625e+01  0.00000000000e+00 0.0000e+00 -1.0000e+00
       -3  1    3    3    0  503 +3.36839481494e+01 -5.93205388573e+00 +2.31754586422e+01  4.13528383347e+01  0.00000000000e+00 0.0000e+00 1.0000e+00
       24  2    1    2    0    0 -9.51571529308e+01 +9.92259388729e+01 +4.82680716119e+02  5.09211659651e+02  8.61113808476e+01 0.0000e+00 0.0000e+00
       16  1    6    6    0    0 -8.92088483002e+01 +1.11466232049e+02 +4.67546269191e+02  4.88858316219e+02  0.00000000000e+00 0.0000e+00 -1.0000e+00
      -15  1    6    6    0    0 -5.94830463062e+00 -1.22402931759e+01 +1.51344469285e+01  2.03533434316e+01  1.77700000000e+00 0.0000e+00 1.0000e+00
        1  1    1    2  501    0 +5.79600594117e+01 -1.01980104442e+01 +2.88864945678e+02  2.94798786879e+02  0.00000000000e+00 0.0000e+00 -1.0000e+00
        1  1    1    2  502    0 +4.79380385100e+01 -9.11638263405e+01 +4.13544191263e+02  4.26178010809e+02  0.00000000000e+00 0.0000e+00 -1.0000e+00
#  0.1300000e+05  0.1300000e+05  0.1300000e+05  0.1300000e+05
<mgrwt>
<rscale>  2 0.24113993e+03</rscale>
<asrwt>0</asrwt>
<pdfrwt beam="1">  1        2 0.20038338e+00 0.26721285e+03</pdfrwt>
<pdfrwt beam="2">  1        2 0.61201681e-02 0.17721665e+03</pdfrwt>
<totfact> 0.36063702e+01</totfact>
</mgrwt>
<clustering>
<clus scale="   59.471">  3  5 -1 -1</clus>
<clus scale="  103.765">  4  6 -1 -1</clus>
<clus scale="  177.217">  2  3  1 -1</clus>
<clus scale="  267.213">  1  3  2 -1</clus>
</clustering>
<rwgt>
  <wgt id="1">4.13582e-06</wgt>
  <wgt id="2">2.74622e-06</wgt>
  <wgt id="3">1.95987e-06</wgt>
  <wgt id="4">4.25461e-06</wgt>
  <wgt id="5">2.8251e-06</wgt>
  <wgt id="6">2.01616e-06</wgt>
  <wgt id="7">4.26532e-06</wgt>
  <wgt id="8">2.83221e-06</wgt>
  <wgt id="9">2.02123e-06</wgt>
  <wgt id="10">2.8251e-06</wgt>
  <wgt id="11">2.8251e-06</wgt>
  <wgt id="12">2.8251e-06</wgt>
  <wgt id="13">2.8251e-06</wgt>
  <wgt id="14">2.82745e-06</wgt>
  <wgt id="15">2.8231e-06</wgt>
  <wgt id="16">2.82537e-06</wgt>
  <wgt id="17">2.82462e-06</wgt>
  <wgt id="18">2.81645e-06</wgt>
  <wgt id="19">2.83787e-06</wgt>
  <wgt id="20">2.823e-06</wgt>
  <wgt id="21">2.82648e-06</wgt>
  <wgt id="22">2.82888e-06</wgt>
  <wgt id="23">2.81961e-06</wgt>
  <wgt id="24">2.84526e-06</wgt>
  <wgt id="25">2.81252e-06</wgt>
  <wgt id="26">2.82808e-06</wgt>
  <wgt id="27">2.82098e-06</wgt>
  <wgt id="28">2.84474e-06</wgt>
  <wgt id="29">2.81786e-06</wgt>
  <wgt id="30">2.83523e-06</wgt>
  <wgt id="31">2.80758e-06</wgt>
  <wgt id="32">2.82741e-06</wgt>
  <wgt id="33">2.82283e-06</wgt>
  <wgt id="34">2.78926e-06</wgt>
  <wgt id="35">2.88903e-06</wgt>
  <wgt id="36">2.84077e-06</wgt>
  <wgt id="37">2.81514e-06</wgt>
  <wgt id="38">2.82093e-06</wgt>
  <wgt id="39">2.82712e-06</wgt>
  <wgt id="40">2.82919e-06</wgt>
  <wgt id="41">2.82333e-06</wgt>
  <wgt id="42">2.83576e-06</wgt>
  <wgt id="43">2.80451e-06</wgt>
  <wgt id="44">2.8294e-06</wgt>
  <wgt id="45">2.82351e-06</wgt>
  <wgt id="46">2.81935e-06</wgt>
  <wgt id="47">2.82884e-06</wgt>
  <wgt id="48">2.81926e-06</wgt>
  <wgt id="49">2.82963e-06</wgt>
  <wgt id="50">2.81118e-06</wgt>
  <wgt id="51">2.82914e-06</wgt>
  <wgt id="52">2.83288e-06</wgt>
  <wgt id="53">2.82308e-06</wgt>
</rwgt>
</event>
<event>
 10      0 +2.8251000e-06 6.18535900e+02 7.54677100e-03 9.89118000e-02
       -1 -1    0    0    0  501 +0.00000000000e+00 +0.00000000000e+00 +2.98890945420e+02  2.98890945420e+02  0.00000000000e+00 0.0000e+00 1.0000e+00
        2 -1    0    0  502    0 +0.00000000000e+00 +0.00000000000e+00 -1.34285969030e+03  1.34285969030e+03  0.00000000000e+00 0.0000e+00 -1.0000e+00
       24  2    1    2    0    0 -5.06083418013e+01 -4.82383687225e+01 +1.99692486069e+02  2.27238102220e+02  8.28970544173e+01 0.0000e+00 0.0000e+00
       12  1    3    3    0    0 +5.04009178830e+00 +6.76251355055e+00 -3.77865907547e+00  9.24188179780e+00  0.00000000000e+00 0.0000e+00 -1.0000e+00
      -11  1    3    3    0    0 -5.56484335896e+01 -5.50008822731e+01 +2.03471145145e+02  2.17996220422e+02  0.00000000000e+00 0.0000e+00 1.0000e+00
       24  2    1    2    0    0 -8.39134003292e+00 +2.40116418875e+00 -1.03846650310e+03  1.04201466663e+03  8.54734299610e+01 0.0000e+00 0.0000e+00
        4  1    6    6  503    0 -4.62605928471e+00 -2.07057216754e+01 -9.57405529338e+02  9.57640577118e+02  0.00000000000e+00 0.0000e+00 -1.0000e+00
       -3  1    6    6    0  503 -3.76528074821e+00 +2.31068858642e+01 -8.10609737631e+01  8.43740895114e+01  0.00000000000e+00 0.0000e+00 1.0000e+00
        1  1    1    2  502    0 -4.83037475895e+01 +8.01854434436e+00 -2.46608042684e+02  2.51422106827e+02  0.00000000000e+00 0.0000e+00 -1.0000e+00
       -2  1    1    2    0  501 +1.07303429424e+02 +3.78186601894e+01 +4.14133148366e+01  1.21075760045e+02  0.00000000000e+00 0.0000e+00 1.0000e+00
#  0.1300000e+05  0.1300000e+05  0.1300000e+05  0.1141651e+03
<mgrwt>
<rscale>  2 0.37159865e+03</rscale>
<asrwt>0</asrwt>
<pdfrwt beam="1">  1        2 0.20659380e+00 0.80575272e+02</pdfrwt>
<pdfrwt beam="2">  1       -1 0.45983222e-01 0.61853590e+03</pdfrwt>
<totfact> 0.11613140e+00</totfact>
</mgrwt>
<clustering>
<clus scale="   52.720">  3  5 -1 -1</clus>
<clus scale="   80.575">  2  4  1 -1</clus>
<clus scale="  114.165">  3  6 -1 -1</clus>
<clus scale="  618.536">  2  3  1 -1</clus>
</clustering>
<rwgt>
  <wgt id="1">4.69765e-06</wgt>
  <wgt id="2">3.20051e-06</wgt>
  <wgt id="3">2.32431e-06</wgt>
  <wgt id="4">4.14662e-06</wgt>
  <wgt id="5">2.8251e-06</wgt>
  <wgt id="6">2.05168e-06</wgt>
  <wgt id="7">3.70184e-06</wgt>
  <wgt id="8">2.52207e-06</wgt>
  <wgt id="9">1.83161e-06</wgt>
  <wgt id="10">2.8251e-06</wgt>
  <wgt id="11">2.8251e-06</wgt>
  <wgt id="12">2.8251e-06</wgt>
  <wgt id="13">2.8251e-06</wgt>
  <wgt id="14">2.83019e-06</wgt>
  <wgt id="15">2.82101e-06</wgt>
  <wgt id="16">2.83218e-06</wgt>
  <wgt id="17">2.81712e-06</wgt>
  <wgt id="18">2.81067e-06</wgt>
  <wgt id="19">2.84674e-06</wgt>
  <wgt id="20">2.8404e-06</wgt>
  <wgt id="21">2.81491e-06</wgt>
  <wgt id="22">2.83551e-06</wgt>
  <wgt id="23">2.81037e-06</wgt>
  <wgt id="24">2.87997e-06</wgt>
  <wgt id="25">2.79163e-06</wgt>
  <wgt id="26">2.8262e-06</wgt>
  <wgt id="27">2.82386e-06</wgt>
  <wgt id="28">2.85663e-06</wgt>
  <wgt id="29">2.81383e-06</wgt>
  <wgt id="30">2.82525e-06</wgt>
  <wgt id="31">2.82445e-06</wgt>
  <wgt id="32">2.83841e-06</wgt>
  <wgt id="33">2.81248e-06</wgt>
  <wgt id="34">2.80555e-06</wgt>
  <wgt id="35">2.86108e-06</wgt>
  <wgt id="36">2.84503e-06</wgt>
  <wgt id="37">2.81118e-06</wgt>
  <wgt id="38">2.83803e-06</wgt>
  <wgt id="39">2.81954e-06</wgt>
  <wgt id="40">2.81869e-06</wgt>
  <wgt id="41">2.83225e-06</wgt>
  <wgt id="42">2.84538e-06</wgt>
  <wgt id="43">2.78134e-06</wgt>
  <wgt id="44">2.83204e-06</wgt>
  <wgt id="45">2.8228e-06</wgt>
  <wgt id="46">2.81975e-06</wgt>
  <wgt id="47">2.82944e-06</wgt>
  <wgt id="48">2.82831e-06</wgt>
  <wgt id="49">2.82598e-06</wgt>
  <wgt id="50">2.83176e-06</wgt>
  <wgt id="51">2.8202e-06</wgt>
  <wgt id="52">2.83459e-06</wgt>
  <wgt id="53">2.82271e-06</wgt>
</rwgt>
</event>
<event>
 11      0 +2.8251000e-06 1.83892500e+02 7.54677100e-03 1.11608700e-01
        2 -1    0    0  501    0 +0.00000000000e+00 +0.00000000000e+00 +1.94271278800e+03  1.94271278800e+03  0.00000000000e+00 0.0000e+00 -1.0000e+00
        2 -1    0    0  503    0 +0.00000000000e+00 +0.00000000000e+00 -9.03103857930e+01  9.03103857930e+01  0.00000000000e+00 0.0000e+00 -1.0000e+00
       24  2    1    2    0    0 -1.61707236524e+02 -9.20968480499e+01 +8.40969685905e+02  8.65327240225e+02  8.32475843452e+01 0.0000e+00 0.0000e+00
        4  1    3    3  504    0 -2.86354908136e+00 -3.26022488887e+01 +1.79291523773e+02  1.82254100208e+02  0.00000000000e+00 0.0000e+00 -1.0000e+00
       -3  1    3    3    0  504 -1.58843687443e+02 -5.94945991612e+01 +6.61678162133e+02  6.83073140017e+02  0.00000000000e+00 0.0000e+00 1.0000e+00
       24  2    1    2    0    0 -1.35665789328e+01 -1.13587607667e+01 +2.79121113949e+02  2.90634038381e+02  7.90346411611e+01 0.0000e+00 0.0000e+00
        2  1    6    6  505    0 +2.66658908869e+01 +6.10486708486e-01 +4.14893272754e+01  4.93234904338e+01  0.00000000000e+00 0.0000e+00 -1.0000e+00
       -1  1    6    6    0  505 -4.02324698196e+01 -1.19692474752e+01 +2.37631786673e+02  2.41310547947e+02  0.00000000000e+00 0.0000e+00 1.0000e+00
       21  1    1    2  503  502 +1.09642282498e+01 +9.99440869289e+01 +2.67042410455e+01  1.04029569368e+02  0.00000000000e+00 0.0000e+00 -1.0000e+00
        1  1    1    2  501    0 +6.11041638043e+01 +1.26196034351e+02 +2.13115150510e+02  2.55102381990e+02  0.00000000000e+00 0.0000e+00 -1.0000e+00
        1  1    1    2  502    0 +1.03205423403e+02 -1.22684512463e+02 +4.92492210798e+02  5.17929943829e+02  0.00000000000e+00 0.0000e+00 -1.0000e+00
#  0.1300000e+05  0.1300000e+05  0.9993805e+02  0.1300000e+05  0.1300000e+05
<mgrwt>
<rscale>  2 0.15039489e+03</rscale>
<asrwt>  1 0.99938047e+02</asrwt>
<pdfrwt beam="1">  1        2 0.29887889e+00 0.82269751e+02</pdfrwt>
<pdfrwt beam="2">  2        2        2 0.13893906e-01 0.70489216e-02 0.99938047e+02 0.18389251e+03</pdfrwt>
<totfact> 0.90087704e-01</totfact>
</mgrwt>
<clustering>
<clus scale="   82.270">  1  4  2 -1</clus>
<clus scale="   99.938">  2  5  1 -1</clus>
<clus scale="  141.327">  1  7  2 -1</clus>
<clus scale="  165.376">  1  6  2 -1</clus>
<clus scale="  183.893">  1  3  2 -1</clus>
</clustering>
<rwgt>
  <wgt id="1">4.74276e-06</wgt>
  <wgt id="2">3.04859e-06</wgt>
  <wgt id="3">2.12944e-06</wgt>
  <wgt id="4">4.39506e-06</wgt>
  <wgt id="5">2.8251e-06</wgt>
  <wgt id="6">1.97333e-06</wgt>
  <wgt id="7">4.13837e-06</wgt>
  <wgt id="8">2.6601e-06</wgt>
  <wgt id="9">1.85808e-06</wgt>
  <wgt id="10">3.58142e-06</wgt>
  <wgt id="11">2.8251e-06</wgt>
  <wgt id="12">2.33651e-06</wgt>
  <wgt id="13">2.8251e-06</wgt>
  <wgt id="14">2.82898e-06</wgt>
  <wgt id="15">2.82182e-06</wgt>
  <wgt id="16">2.82144e-06</wgt>
  <wgt id="17">2.82901e-06</wgt>
  <wgt id="18">2.8143e-06</wgt>
  <wgt id="19">2.84104e-06</wgt>
  <wgt id="20">2.82328e-06</wgt>
  <wgt id="21">2.82631e-06</wgt>
  <wgt id="22">2.83078e-06</wgt>
  <wgt id="23">2.81684e-06</wgt>
  <wgt id="24">2.856e-06</wgt>
  <wgt id="25">2.80596e-06</wgt>
  <wgt id="26">2.82671e-06</wgt>
  <wgt id="27">2.82291e-06</wgt>
  <wgt id="28">2.84678e-06</wgt>
  <wgt id="29">2.81705e-06</wgt>
  <wgt id="30">2.83637e-06</wgt>
  <wgt id="31">2.80934e-06</wgt>
  <wgt id="32">2.8253e-06</wgt>
  <wgt id="33">2.82486e-06</wgt>
  <wgt id="34">2.78972e-06</wgt>
  <wgt id="35">2.88906e-06</wgt>
  <wgt id="36">2.82965e-06</wgt>
  <wgt id="37">2.82276e-06</wgt>
  <wgt id="38">2.82147e-06</wgt>
  <wgt id="39">2.82721e-06</wgt>
  <wgt id="40">2.83139e-06</wgt>
  <wgt id="41">2.8196e-06</wgt>
  <wgt id="42">2.8392e-06</wgt>
  <wgt id="43">2.79797e-06</wgt>
  <wgt id="44">2.83046e-06</wgt>
  <wgt id="45">2.82306e-06</wgt>
  <wgt id="46">2.81941e-06</wgt>
  <wgt id="47">2.82879e-06</wgt>
  <wgt id="48">2.81718e-06</wgt>
  <wgt id="49">2.83185e-06</wgt>
  <wgt id="50">2.81389e-06</wgt>
  <wgt id="51">2.82863e-06</wgt>
  <wgt id="52">2.83255e-06</wgt>
  <wgt id="53">2.82329e-06</wgt>
</rwgt>
</event>
<event>
 11      0 +2.8251000e-06 1.81492200e+02 7.54677100e-03 1.11109300e-01
        2 -1    0    0  501    0 +0.00000000000e+00 +0.00000000000e+00 +6.91466059440e+02  6.91466059440e+02  0.00000000000e+00 0.0000e+00 -1.0000e+00
        2 -1    0    0  503    0 +0.00000000000e+00 +0.00000000000e+00 -1.19149111170e+03  1.19149111170e+03  0.00000000000e+00 0.0000e+00 -1.0000e+00
       24  2    1    2    0    0 -6.30355733935e+01 +1.00762920472e+02 -7.43465837611e+02  7.57134401173e+02  7.99024410792e+01 0.0000e+00 0.0000e+00
        4  1    3    3  504    0 -5.42625157727e+01 +9.11997616517e+01 -7.32490635208e+02  7.40138059967e+02  0.00000000000e+00 0.0000e+00 -1.0000e+00
       -3  1    3    3    0  504 -8.77305762080e+00 +9.56315881986e+00 -1.09752024026e+01  1.69963412065e+01  0.00000000000e+00 0.0000e+00 1.0000e+00
       24  2    1    2    0    0 -3.75867352473e+01 +3.87069297900e+01 +6.76960420219e+01  1.16600745572e+02  7.81152397565e+01 0.0000e+00 0.0000e+00
        4  1    6    6  505    0 +9.11116116862e+00 +2.44656725520e+01 +6.22177312310e+01  6.74731685250e+01  0.00000000000e+00 0.0000e+00 -1.0000e+00
       -3  1    6    6    0  505 -4.66978964160e+01 +1.42412572380e+01 +5.47831079082e+00  4.91275770471e+01  0.00000000000e+00 0.0000e+00 1.0000e+00
       21  1    1    2  503  502 -4.29443446005e+01 +4.08770122819e+01 -1.26030740020e+02  1.39279913470e+02  0.00000000000e+00 0.0000e+00 1.0000e+00
        1  1    1    2  501    0 +3.68244935326e+01 -2.92688355379e+02 +5.22633821838e+02  6.00140507238e+02  0.00000000000e+00 0.0000e+00 -1.0000e+00
        1  1    1    2  502    0 +1.06742159709e+02 +1.12341492836e+02 -2.20858338489e+02  2.69801603687e+02  0.00000000000e+00 0.0000e+00 -1.0000e+00
#  0.1300000e+05  0.1300000e+05  0.5928867e+02  0.1300000e+05  0.1300000e+05
<mgrwt>
<rscale>  2 0.15522756e+03</rscale>
<asrwt>  1 0.59288674e+02</asrwt>
<pdfrwt beam="1">  1        2 0.10637939e+00 0.97118467e+02</pdfrwt>
<pdfrwt beam="2">  2        2        2 0.18330632e+00 0.16114165e+00 0.59288674e+02 0.18149215e+03</pdfrwt>
<totfact> 0.23305473e-01</totfact>
</mgrwt>
<clustering>
<clus scale="   59.289">  2  5  1 -1</clus>
<clus scale="   97.118">  1  4  2 -1</clus>
<clus scale="  155.701">  1  7  2 -1</clus>
<clus scale="  162.703">  1  6  2 -1</clus>
<clus scale="  181.492">  1  3  2 -1</clus>
</clustering>
<rwgt>
  <wgt id="1">4.94312e-06</wgt>
  <wgt id="2">3.18488e-06</wgt>
  <wgt id="3">2.228e-06</wgt>
  <wgt id="4">4.38472e-06</wgt>
  <wgt id="5">2.8251e-06</wgt>
  <wgt id="6">1.97632e-06</wgt>
  <wgt id="7">3.9368e-06</wgt>
  <wgt id="8">2.5365e-06</wgt>
  <wgt id="9">1.77443e-06</wgt>
  <wgt id="10">3.67125e-06</wgt>
  <wgt id="11">2.8251e-06</wgt>
  <wgt id="12">2.30087e-06</wgt>
  <wgt id="13">2.8251e-06</wgt>
  <wgt id="14">2.82782e-06</wgt>
  <wgt id="15">2.82273e-06</wgt>
  <wgt id="16">2.81476e-06</wgt>
  <wgt id="17">2.83646e-06</wgt>
  <wgt id="18">2.8117e-06</wgt>
  <wgt id="19">2.84484e-06</wgt>
  <wgt id="20">2.81301e-06</wgt>
  <wgt id="21">2.83318e-06</wgt>
  <wgt id="22">2.83237e-06</wgt>
  <wgt id="23">2.8147e-06</wgt>
  <wgt id="24">2.86586e-06</wgt>
  <wgt id="25">2.79993e-06</wgt>
  <wgt id="26">2.82441e-06</wgt>
  <wgt id="27">2.82595e-06</wgt>
  <wgt id="28">2.87601e-06</wgt>
  <wgt id="29">2.80663e-06</wgt>
  <wgt id="30">2.83082e-06</wgt>
  <wgt id="31">2.81778e-06</wgt>
  <wgt id="32">2.82876e-06</wgt>
  <wgt id="33">2.82146e-06</wgt>
  <wgt id="34">2.78707e-06</wgt>
  <wgt id="35">2.89521e-06</wgt>
  <wgt id="36">2.85086e-06</wgt>
  <wgt id="37">2.81086e-06</wgt>
  <wgt id="38">2.81259e-06</wgt>
  <wgt id="39">2.83125e-06</wgt>
  <wgt id="40">2.82594e-06</wgt>
  <wgt id="41">2.82458e-06</wgt>
  <wgt id="42">2.8492e-06</wgt>
  <wgt id="43">2.78488e-06</wgt>
  <wgt id="44">2.83377e-06</wgt>
  <wgt id="45">2.82178e-06</wgt>
  <wgt id="46">2.82488e-06</wgt>
  <wgt id="47">2.82539e-06</wgt>
  <wgt id="48">2.81274e-06</wgt>
  <wgt id="49">2.83376e-06</wgt>
  <wgt id="50">2.81499e-06</wgt>
  <wgt id="51">2.839e-06</wgt>
  <wgt id="52">2.8366e-06</wgt>
  <wgt id="53">2.82197e-06</wgt>
</rwgt>
</event>
<event>
 10      0 +2.8251000e-06 2.40245800e+02 7.54677100e-03 1.05197900e-01
        2 -1    0    0  502    0 +0.00000000000e+00 +0.00000000000e+00 +7.51939166020e+02  7.51939166020e+02  0.00000000000e+00 0.0000e+00 -1.0000e+00
        2 -1    0    0  501    0 +0.00000000000e+00 +0.00000000000e+00 -6.57987658070e+02  6.57987658070e+02  0.00000000000e+00 0.0000e+00 -1.0000e+00
       24  2    1    2    0    0 -8.91782799972e+01 +7.16566397415e+01 +6.67604760197e+02  6.82166387274e+02  8.10396473717e+01 0.0000e+00 0.0000e+00
        2  1    3    3  503    0 -2.71411396763e+01 +6.98632012135e+01 +4.35748295441e+02  4.42147130859e+02  0.00000000000e+00 0.0000e+00 -1.0000e+00
       -1  1    3    3    0  503 -6.20371403209e+01 +1.79343852805e+00 +2.31856464756e+02  2.40019256415e+02  0.00000000000e+00 0.0000e+00 1.0000e+00
       24  2    1    2    0    0 +7.09531079971e+01 +1.40728695270e+01 -2.45610590286e+02  2.68173940727e+02  7.97515594396e+01 0.0000e+00 0.0000e+00
        4  1    6    6  504    0 +3.41328885545e+01 +2.22962962652e+01 -2.17074764538e+02  2.20870170705e+02  0.00000000000e+00 0.0000e+00 -1.0000e+00
       -3  1    6    6    0  504 +3.68202194426e+01 -8.22342673826e+00 -2.85358257486e+01  4.73037700217e+01  0.00000000000e+00 0.0000e+00 1.0000e+00
        1  1    1    2  501    0 -4.79994833684e+01 -2.61864022278e+01 +4.82353893727e+01  7.29131733860e+01  0.00000000000e+00 0.0000e+00 -1.0000e+00
        1  1    1    2  502    0 +6.62246553686e+01 -5.95431070407e+01 -3.76278051334e+02  3.86673322703e+02  0.00000000000e+00 0.0000e+00 -1.0000e+00
#  0.1300000e+05  0.1300000e+05  0.1300000e+05  0.1300000e+05
<mgrwt>
<rscale>  2 0.23094074e+03</rscale>
<asrwt>0</asrwt>
<pdfrwt beam="1">  1        2 0.11568295e+00 0.24024576e+03</pdfrwt>
<pdfrwt beam="2">  1        2 0.10122887e+00 0.20513278e+03</pdfrwt>
<totfact> 0.30633836e+00</totfact>
</mgrwt>
<clustering>
<clus scale="   54.816">  3  5 -1 -1</clus>
<clus scale="   88.415">  4  6 -1 -1</clus>
<clus scale="  205.133">  2  4  1 -1</clus>
<clus scale="  240.246">  1  3  2 -1</clus>
</clustering>
<rwgt>
  <wgt id="1">4.64319e-06</wgt>
  <wgt id="2">3.07465e-06</wgt>
  <wgt id="3">2.19018e-06</wgt>
  <wgt id="4">4.26632e-06</wgt>
  <wgt id="5">2.8251e-06</wgt>
  <wgt id="6">2.01241e-06</wgt>
  <wgt id="7">3.93578e-06</wgt>
  <wgt id="8">2.60622e-06</wgt>
  <wgt id="9">1.85649e-06</wgt>
  <wgt id="10">2.8251e-06</wgt>
  <wgt id="11">2.8251e-06</wgt>
  <wgt id="12">2.8251e-06</wgt>
  <wgt id="13">2.8251e-06</wgt>
  <wgt id="14">2.82788e-06</wgt>
  <wgt id="15">2.82275e-06</wgt>
  <wgt id="16">2.81925e-06</wgt>
  <wgt id="17">2.83143e-06</wgt>
  <wgt id="18">2.81226e-06</wgt>
  <wgt id="19">2.844e-06</wgt>
  <wgt id="20">2.81057e-06</wgt>
  <wgt id="21">2.83485e-06</wgt>
  <wgt id="22">2.83163e-06</wgt>
  <wgt id="23">2.81573e-06</wgt>
  <wgt id="24">2.86238e-06</wgt>
  <wgt id="25">2.80202e-06</wgt>
  <wgt id="26">2.82359e-06</wgt>
  <wgt id="27">2.82703e-06</wgt>
  <wgt id="28">2.8725e-06</wgt>
  <wgt id="29">2.80796e-06</wgt>
  <wgt id="30">2.82993e-06</wgt>
  <wgt id="31">2.81889e-06</wgt>
  <wgt id="32">2.82982e-06</wgt>
  <wgt id="33">2.82056e-06</wgt>
  <wgt id="34">2.79048e-06</wgt>
  <wgt id="35">2.88895e-06</wgt>
  <wgt id="36">2.85032e-06</wgt>
  <wgt id="37">2.8119e-06</wgt>
  <wgt id="38">2.8129e-06</wgt>
  <wgt id="39">2.83098e-06</wgt>
  <wgt id="40">2.82508e-06</wgt>
  <wgt id="41">2.82555e-06</wgt>
  <wgt id="42">2.84795e-06</wgt>
  <wgt id="43">2.7855e-06</wgt>
  <wgt id="44">2.83593e-06</wgt>
  <wgt id="45">2.82085e-06</wgt>
  <wgt id="46">2.82626e-06</wgt>
  <wgt id="47">2.82472e-06</wgt>
  <wgt id="48">2.80429e-06</wgt>
  <wgt id="49">2.83652e-06</wgt>
  <wgt id="50">2.81354e-06</wgt>
  <wgt id="51">2.84045e-06</wgt>
  <wgt id="52">2.83233e-06</wgt>
  <wgt id="53">2.823e-06</wgt>
</rwgt>
</event>
<event>
 10      0 +2.8251000e-06 1.43784200e+02 7.54677100e-03 1.13062500e-01
        2 -1    0    0  502    0 +0.00000000000e+00 +0.00000000000e+00 +1.35439449130e+03  1.35439449130e+03  0.00000000000e+00 0.0000e+00 -1.0000e+00
        2 -1    0    0  501    0 +0.00000000000e+00 +0.00000000000e+00 -2.23805125230e+02  2.23805125230e+02  0.00000000000e+00 0.0000e+00 -1.0000e+00
       24  2    1    2    0    0 +2.89691791688e+01 +9.83069140991e+01 +6.13430598586e+02  6.26657779115e+02  7.68076177363e+01 0.0000e+00 0.0000e+00
        2  1    3    3  503    0 +1.40207705222e+01 +9.65252098976e+01 +5.94611083259e+02  6.02557912972e+02  0.00000000000e+00 0.0000e+00 -1.0000e+00
       -1  1    3    3    0  503 +1.49484086465e+01 +1.78170420142e+00 +1.88195153273e+01  2.40998661424e+01  0.00000000000e+00 0.0000e+00 1.0000e+00
       24  2    1    2    0    0 +5.88011287947e+01 -6.67776763098e+01 -1.69642670487e+02  2.07674565383e+02  8.02075972492e+01 0.0000e+00 0.0000e+00
        4  1    6    6  504    0 +3.89858125759e+01 -7.20681344814e+01 -1.68222167608e+02  1.87116026210e+02  0.00000000000e+00 0.0000e+00 -1.0000e+00
       -3  1    6    6    0  504 +1.98153162188e+01 +5.29045817160e+00 -1.42050287847e+00  2.05585391734e+01  0.00000000000e+00 0.0000e+00 1.0000e+00
        1  1    1    2  501    0 -4.10002468910e+01 -1.47393198966e+02 +4.62045237838e+02  4.86715088276e+02  0.00000000000e+00 0.0000e+00 -1.0000e+00
        1  1    1    2  502    0 -4.67700610725e+01 +1.15863961177e+02 +2.24756200133e+02  2.57152183756e+02  0.00000000000e+00 0.0000e+00 -1.0000e+00
#  0.1300000e+05  0.1300000e+05  0.1300000e+05  0.1300000e+05
<mgrwt>
<rscale>  2 0.13740367e+03</rscale>
<asrwt>0</asrwt>
<pdfrwt beam="1">  1        2 0.20836838e+00 0.14378418e+03</pdfrwt>
<pdfrwt beam="2">  1        2 0.34431558e-01 0.11991128e+03</pdfrwt>
<totfact> 0.51466707e+00</totfact>
</mgrwt>
<clustering>
<clus scale="  119.911">  2  4  1 -1</clus>
<clus scale="   87.332">  2  6  1 -1</clus>
<clus scale="  119.192">  2  5  1 -1</clus>
<clus scale="  143.784">  1  3  2 -1</clus>
</clustering>
<rwgt>
  <wgt id="1">4.75821e-06</wgt>
  <wgt id="2">3.03782e-06</wgt>
  <wgt id="3">2.11258e-06</wgt>
  <wgt id="4">4.42502e-06</wgt>
  <wgt id="5">2.8251e-06</wgt>
  <wgt id="6">1.96465e-06</wgt>
  <wgt id="7">4.10691e-06</wgt>
  <wgt id="8">2.622e-06</wgt>
  <wgt id="9">1.82341e-06</wgt>
  <wgt id="10">2.8251e-06</wgt>
  <wgt id="11">2.8251e-06</wgt>
  <wgt id="12">2.8251e-06</wgt>
  <wgt id="13">2.8251e-06</wgt>
  <wgt id="14">2.82845e-06</wgt>
  <wgt id="15">2.82232e-06</wgt>
  <wgt id="16">2.82205e-06</wgt>
  <wgt id="17">2.82835e-06</wgt>
  <wgt id="18">2.81322e-06</wgt>
  <wgt id="19">2.84266e-06</wgt>
  <wgt id="20">2.81761e-06</wgt>
  <wgt id="21">2.83009e-06</wgt>
  <wgt id="22">2.83146e-06</wgt>
  <wgt id="23">2.81601e-06</wgt>
  <wgt id="24">2.8604e-06</wgt>
  <wgt id="25">2.80329e-06</wgt>
  <wgt id="26">2.82476e-06</wgt>
  <wgt id="27">2.82557e-06</wgt>
  <wgt id="28">2.86058e-06</wgt>
  <wgt id="29">2.81214e-06</wgt>
  <wgt id="30">2.83226e-06</wgt>
  <wgt id="31">2.81563e-06</wgt>
  <wgt id="32">2.82895e-06</wgt>
  <wgt id="33">2.82136e-06</wgt>
  <wgt id="34">2.79122e-06</wgt>
  <wgt id="35">2.88693e-06</wgt>
  <wgt id="36">2.83245e-06</wgt>
  <wgt id="37">2.82118e-06</wgt>
  <wgt id="38">2.81763e-06</wgt>
  <wgt id="39">2.82887e-06</wgt>
  <wgt id="40">2.82718e-06</wgt>
  <wgt id="41">2.82339e-06</wgt>
  <wgt id="42">2.84493e-06</wgt>
  <wgt id="43">2.78839e-06</wgt>
  <wgt id="44">2.83274e-06</wgt>
  <wgt id="45">2.82215e-06</wgt>
  <wgt id="46">2.82222e-06</wgt>
  <wgt id="47">2.82716e-06</wgt>
  <wgt id="48">2.8041e-06</wgt>
  <wgt id="49">2.8372e-06</wgt>
  <wgt id="50">2.81517e-06</wgt>
  <wgt id="51">2.8342e-06</wgt>
  <wgt id="52">2.83032e-06</wgt>
  <wgt id="53">2.82365e-06</wgt>
</rwgt>
</event>
<event>
 11      0 +2.8251000e-06 1.84028300e+02 7.54677100e-03 1.10308000e-01
        2 -1    0    0  502    0 +0.00000000000e+00 +0.00000000000e+00 +1.72815182360e+03  1.72815182360e+03  0.00000000000e+00 0.0000e+00 -1.0000e+00
        2 -1    0    0  503    0 +0.00000000000e+00 +0.00000000000e+00 -6.71108041530e+02  6.71108041530e+02  0.00000000000e+00 0.0000e+00 -1.0000e+00
       24  2    1    2    0    0 -5.99705314721e+01 +1.23414965294e+01 -1.77697074334e+01  1.03347228242e+02  8.13394732057e+01 0.0000e+00 0.0000e+00
       12  1    3    3    0    0 -4.12256188310e+01 +3.69450743650e+01 +1.59304062309e+01  5.76044096447e+01  0.00000000000e+00 0.0000e+00 -1.0000e+00
      -11  1    3    3    0    0 -1.87449126410e+01 -2.46035778356e+01 -3.37001136643e+01  4.57428185972e+01  0.00000000000e+00 0.0000e+00 1.0000e+00
       24  2    1    2    0    0 -8.89268753350e+01 +1.09351542341e+02 +1.35613042360e+03  1.36594861900e+03  8.28260523553e+01 0.0000e+00 0.0000e+00
       14  1    6    6    0    0 -8.12009124847e+01 +1.00575697934e+02 +1.33890202026e+03  1.34512738395e+03  0.00000000000e+00 0.0000e+00 -1.0000e+00
      -13  1    6    6    0    0 -7.72596285031e+00 +8.77584440656e+00 +1.72284033427e+01  2.08212350439e+01  0.00000000000e+00 0.0000e+00 1.0000e+00
       21  1    1    2  503  501 +1.48980652025e+02 -1.77963473349e+02 -2.39581184942e+02  3.33564651458e+02  0.00000000000e+00 0.0000e+00 -1.0000e+00
        1  1    1    2  501    0 +1.76667705871e+02 +1.14088358923e+02 +2.00800853993e+02  2.90772445227e+02  0.00000000000e+00 0.0000e+00 -1.0000e+00
        1  1    1    2  502    0 -1.76750951089e+02 -5.78179244444e+01 -2.42536603150e+02  3.05626921205e+02  0.00000000000e+00 0.0000e+00 -1.0000e+00
#  0.1300000e+05  0.1300000e+05  0.1882760e+03  0.1300000e+05  0.1300000e+05
<mgrwt>
<rscale>  3 0.16340762e+03</rscale>
<asrwt>0</asrwt>
<pdfrwt beam="1">  1        2 0.26586951e+00 0.16286295e+03</pdfrwt>
<pdfrwt beam="2">  1        2 0.10324739e+00 0.10124477e+03</pdfrwt>
<totfact> 0.10526798e-01</totfact>
</mgrwt>
<clustering>
<clus scale="  101.245">  2  3  1 -1</clus>
<clus scale="  162.863">  1  4  2 -1</clus>
<clus scale="  188.276">  2  5  1 -1</clus>
<clus scale="  207.944">  2  7  1 -1</clus>
<clus scale="  207.944">  1  3  2 -1</clus>
</clustering>
<rwgt>
  <wgt id="1">6.45922e-06</wgt>
  <wgt id="2">3.35958e-06</wgt>
  <wgt id="3">1.97291e-06</wgt>
  <wgt id="4">5.43162e-06</wgt>
  <wgt id="5">2.8251e-06</wgt>
  <wgt id="6">1.65904e-06</wgt>
  <wgt id="7">4.66239e-06</wgt>
  <wgt id="8">2.42501e-06</wgt>
  <wgt id="9">1.42409e-06</wgt>
  <wgt id="10">2.8251e-06</wgt>
  <wgt id="11">2.8251e-06</wgt>
  <wgt id="12">2.8251e-06</wgt>
  <wgt id="13">2.8251e-06</wgt>
  <wgt id="14">2.82797e-06</wgt>
  <wgt id="15">2.82266e-06</wgt>
  <wgt id="16">2.81161e-06</wgt>
  <wgt id="17">2.84005e-06</wgt>
  <wgt id="18">2.81111e-06</wgt>
  <wgt id="19">2.84579e-06</wgt>
  <wgt id="20">2.81536e-06</wgt>
  <wgt id="21">2.8316e-06</wgt>
  <wgt id="22">2.83309e-06</wgt>
  <wgt id="23">2.81367e-06</wgt>
  <wgt id="24">2.86919e-06</wgt>
  <wgt id="25">2.79792e-06</wgt>
  <wgt id="26">2.82491e-06</wgt>
  <wgt id="27">2.82531e-06</wgt>
  <wgt id="28">2.87339e-06</wgt>
  <wgt id="29">2.80758e-06</wgt>
  <wgt id="30">2.83061e-06</wgt>
  <wgt id="31">2.818e-06</wgt>
  <wgt id="32">2.82671e-06</wgt>
  <wgt id="33">2.82347e-06</wgt>
  <wgt id="34">2.7844e-06</wgt>
  <wgt id="35">2.90024e-06</wgt>
  <wgt id="36">2.84448e-06</wgt>
  <wgt id="37">2.81528e-06</wgt>
  <wgt id="38">2.81503e-06</wgt>
  <wgt id="39">2.83043e-06</wgt>
  <wgt id="40">2.82917e-06</wgt>
  <wgt id="41">2.82124e-06</wgt>
  <wgt id="42">2.84879e-06</wgt>
  <wgt id="43">2.78602e-06</wgt>
  <wgt id="44">2.83336e-06</wgt>
  <wgt id="45">2.82201e-06</wgt>
  <wgt id="46">2.82418e-06</wgt>
  <wgt id="47">2.82581e-06</wgt>
  <wgt id="48">2.81834e-06</wgt>
  <wgt id="49">2.83229e-06</wgt>
  <wgt id="50">2.81613e-06</wgt>
  <wgt id="51">2.8382e-06</wgt>
  <wgt id="52">2.83782e-06</wgt>
  <wgt id="53">2.82187e-06</wgt>
</rwgt>
</event>
<event>
 10      0 +2.8251000e-06 2.05663300e+02 7.54677100e-03 1.08089300e-01
        2 -1    0    0  501    0 +0.00000000000e+00 +0.00000000000e+00 +1.01357780500e+03  1.01357780500e+03  0.00000000000e+00 0.0000e+00 -1.0000e+00
        2 -1    0    0  502    0 +0.00000000000e+00 +0.00000000000e+00 -4.22860670390e+02  4.22860670390e+02  0.00000000000e+00 0.0000e+00 -1.0000e+00
       24  2    1    2    0    0 -4.56656360293e+01 +6.23271429624e+00 +5.83759465411e+02  5.91104056953e+02  8.06516933967e+01 0.0000e+00 0.0000e+00
        4  1    3    3  503    0 -4.20721314863e+01 -1.07626041366e+01 +5.59949015138e+02  5.61630481232e+02  0.00000000000e+00 0.0000e+00 -1.0000e+00
       -3  1    3    3    0  503 -3.59350454307e+00 +1.69953184329e+01 +2.38104502732e+01  2.94735757205e+01  0.00000000000e+00 0.0000e+00 1.0000e+00
       24  2    1    2    0    0 +5.02080833311e+01 -4.61882671802e+01 -2.66452329504e+02  2.86253340443e+02  7.93090370640e+01 0.0000e+00 0.0000e+00
        2  1    6    6  504    0 +8.86904964844e+00 -2.67868176451e+01 -2.17444007653e+02  2.19267166045e+02  0.00000000000e+00 0.0000e+00 -1.0000e+00
       -1  1    6    6    0  504 +4.13390336826e+01 -1.94014495352e+01 -4.90083218508e+01  6.69861743982e+01  0.00000000000e+00 0.0000e+00 1.0000e+00
        1  1    1    2  501    0 +5.13123922865e-01 +9.33111287762e+01 -1.25610399977e+02  1.56477482827e+02  0.00000000000e+00 0.0000e+00 -1.0000e+00
        1  1    1    2  502    0 -5.05557122461e+00 -5.33555758922e+01 +3.99020398679e+02  4.02603595167e+02  0.00000000000e+00 0.0000e+00 -1.0000e+00
#  0.1300000e+05  0.1300000e+05  0.1300000e+05  0.1300000e+05
<mgrwt>
<rscale>  2 0.18909102e+03</rscale>
<asrwt>0</asrwt>
<pdfrwt beam="1">  1        2 0.15593505e+00 0.14696475e+03</pdfrwt>
<pdfrwt beam="2">  1        2 0.65055488e-01 0.20566331e+03</pdfrwt>
<totfact> 0.36785690e+00</totfact>
</mgrwt>
<clustering>
<clus scale="   53.790">  3  6 -1 -1</clus>
<clus scale="   92.783">  4  5 -1 -1</clus>
<clus scale="  146.965">  1  3  2 -1</clus>
<clus scale="  205.663">  1  3  2 -1</clus>
</clustering>
<rwgt>
  <wgt id="1">4.70118e-06</wgt>
  <wgt id="2">3.07196e-06</wgt>
  <wgt id="3">2.16899e-06</wgt>
  <wgt id="4">4.3234e-06</wgt>
  <wgt id="5">2.8251e-06</wgt>
  <wgt id="6">1.99469e-06</wgt>
  <wgt id="7">3.98954e-06</wgt>
  <wgt id="8">2.60694e-06</wgt>
  <wgt id="9">1.84066e-06</wgt>
  <wgt id="10">2.8251e-06</wgt>
  <wgt id="11">2.8251e-06</wgt>
  <wgt id="12">2.8251e-06</wgt>
  <wgt id="13">2.8251e-06</wgt>
  <wgt id="14">2.82805e-06</wgt>
  <wgt id="15">2.82266e-06</wgt>
  <wgt id="16">2.82041e-06</wgt>
  <wgt id="17">2.83023e-06</wgt>
  <wgt id="18">2.81256e-06</wgt>
  <wgt id="19">2.84369e-06</wgt>
  <wgt id="20">2.81251e-06</wgt>
  <wgt id="21">2.83357e-06</wgt>
  <wgt id="22">2.83164e-06</wgt>
  <wgt id="23">2.81587e-06</wgt>
  <wgt id="24">2.86195e-06</wgt>
  <wgt id="25">2.80237e-06</wgt>
  <wgt id="26">2.82386e-06</wgt>
  <wgt id="27">2.82686e-06</wgt>
  <wgt id="28">2.86928e-06</wgt>
  <wgt id="29">2.80914e-06</wgt>
  <wgt id="30">2.83019e-06</wgt>
  <wgt id="31">2.81862e-06</wgt>
  <wgt id="32">2.82985e-06</wgt>
  <wgt id="33">2.8206e-06</wgt>
  <wgt id="34">2.7909e-06</wgt>
  <wgt id="35">2.88807e-06</wgt>
  <wgt id="36">2.84365e-06</wgt>
  <wgt id="37">2.81557e-06</wgt>
  <wgt id="38">2.81451e-06</wgt>
  <wgt id="39">2.83029e-06</wgt>
  <wgt id="40">2.82563e-06</wgt>
  <wgt id="41">2.82509e-06</wgt>
  <wgt id="42">2.84719e-06</wgt>
  <wgt id="43">2.78613e-06</wgt>
  <wgt id="44">2.83518e-06</wgt>
  <wgt id="45">2.82122e-06</wgt>
  <wgt id="46">2.82539e-06</wgt>
  <wgt id="47">2.82536e-06</wgt>
  <wgt id="48">2.80264e-06</wgt>
  <wgt id="49">2.83747e-06</wgt>
  <wgt id="50">2.81433e-06</wgt>
  <wgt id="51">2.83898e-06</wgt>
  <wgt id="52">2.83105e-06</wgt>
  <wgt id="53">2.82342e-06</wgt>
</rwgt>
</event>
<event>
 10      0 +2.8251000e-06 2.32801400e+02 7.54677100e-03 1.05777100e-01
        2 -1    0    0  502    0 +0.00000000000e+00 +0.00000000000e+00 +1.62914022030e+03  1.62914022030e+03  0.00000000000e+00 0.0000e+00 -1.0000e+00
        2 -1    0    0  501    0 +0.00000000000e+00 +0.00000000000e+00 -7.11316452810e+02  7.11316452810e+02  0.00000000000e+00 0.0000e+00 -1.0000e+00
       24  2    1    2    0    0 +6.87963647481e+01 +4.01655432310e+01 -6.42320666729e+02  6.52120394060e+02  7.96175783149e+01 0.0000e+00 0.0000e+00
        4  1    3    3  503    0 +5.15796879831e+01 +1.64655344486e+01 -5.87274023274e+02  5.89764661920e+02  0.00000000000e+00 0.0000e+00 -1.0000e+00
       -3  1    3    3    0  503 +1.72166767650e+01 +2.37000087824e+01 -5.50466434551e+01  6.23557321406e+01  0.00000000000e+00 0.0000e+00 1.0000e+00
       24  2    1    2    0    0 -1.41092504812e+02 +1.58131594435e+01 +8.79419708272e+02  8.94440069956e+02  8.05410734884e+01 0.0000e+00 0.0000e+00
        2  1    6    6  504    0 -3.23404333934e+01 +3.40478576253e+01 +3.86171332604e+02  3.89016012995e+02  0.00000000000e+00 0.0000e+00 -1.0000e+00
       -1  1    6    6    0  504 -1.08752071418e+02 -1.82346981818e+01 +4.93248375668e+02  5.05424056961e+02  0.00000000000e+00 0.0000e+00 1.0000e+00
        1  1    1    2  501    0 +3.40856578120e+01 -3.72318999533e+01 +7.28308105185e+02  7.30055301002e+02  0.00000000000e+00 0.0000e+00 -1.0000e+00
        1  1    1    2  502    0 +3.82104822518e+01 -1.87468027212e+01 -4.75833792389e+01  6.38409080918e+01  0.00000000000e+00 0.0000e+00 -1.0000e+00
#  0.1300000e+05  0.1300000e+05  0.1300000e+05  0.1300000e+05
<mgrwt>
<rscale>  2 0.22167832e+03</rscale>
<asrwt>0</asrwt>
<pdfrwt beam="1">  1        2 0.25063696e+00 0.23280139e+03</pdfrwt>
<pdfrwt beam="2">  1        2 0.10943330e+00 0.19139748e+03</pdfrwt>
<totfact> 0.88012293e-01</totfact>
</mgrwt>
<clustering>
<clus scale="   42.265">  3  6 -1 -1</clus>
<clus scale="   50.506">  4  5 -1 -1</clus>
<clus scale="  191.397">  2  3  1 -1</clus>
<clus scale="  232.801">  1  3  2 -1</clus>
</clustering>
<rwgt>
  <wgt id="1">5.04135e-06</wgt>
  <wgt id="2">3.32937e-06</wgt>
  <wgt id="3">2.36741e-06</wgt>
  <wgt id="4">4.27778e-06</wgt>
  <wgt id="5">2.8251e-06</wgt>
  <wgt id="6">2.00884e-06</wgt>
  <wgt id="7">3.69984e-06</wgt>
  <wgt id="8">2.44342e-06</wgt>
  <wgt id="9">1.73744e-06</wgt>
  <wgt id="10">2.8251e-06</wgt>
  <wgt id="11">2.8251e-06</wgt>
  <wgt id="12">2.8251e-06</wgt>
  <wgt id="13">2.8251e-06</wgt>
  <wgt id="14">2.82805e-06</wgt>
  <wgt id="15">2.82266e-06</wgt>
  <wgt id="16">2.81119e-06</wgt>
  <wgt id="17">2.84058e-06</wgt>
  <wgt id="18">2.81115e-06</wgt>
  <wgt id="19">2.84573e-06</wgt>
  <wgt id="20">2.81542e-06</wgt>
  <wgt id="21">2.83165e-06</wgt>
  <wgt id="22">2.83309e-06</wgt>
  <wgt id="23">2.8137e-06</wgt>
  <wgt id="24">2.86916e-06</wgt>
  <wgt id="25">2.79796e-06</wgt>
  <wgt id="26">2.82496e-06</wgt>
  <wgt id="27">2.82517e-06</wgt>
  <wgt id="28">2.87479e-06</wgt>
  <wgt id="29">2.8071e-06</wgt>
  <wgt id="30">2.8307e-06</wgt>
  <wgt id="31">2.818e-06</wgt>
  <wgt id="32">2.82692e-06</wgt>
  <wgt id="33">2.82329e-06</wgt>
  <wgt id="34">2.78455e-06</wgt>
  <wgt id="35">2.90005e-06</wgt>
  <wgt id="36">2.84605e-06</wgt>
  <wgt id="37">2.81406e-06</wgt>
  <wgt id="38">2.81426e-06</wgt>
  <wgt id="39">2.83074e-06</wgt>
  <wgt id="40">2.82868e-06</wgt>
  <wgt id="41">2.82173e-06</wgt>
  <wgt id="42">2.84909e-06</wgt>
  <wgt id="43">2.78591e-06</wgt>
  <wgt id="44">2.83292e-06</wgt>
  <wgt id="45">2.82222e-06</wgt>
  <wgt id="46">2.82405e-06</wgt>
  <wgt id="47">2.82581e-06</wgt>
  <wgt id="48">2.81944e-06</wgt>
  <wgt id="49">2.83183e-06</wgt>
  <wgt id="50">2.81619e-06</wgt>
  <wgt id="51">2.83831e-06</wgt>
  <wgt id="52">2.83873e-06</wgt>
  <wgt id="53">2.82165e-06</wgt>
</rwgt>
</event>
<event>
 10      0 +2.8251000e-06 3.98770300e+02 7.54677100e-03 1.02944400e-01
        2 -1    0    0  502    0 +0.00000000000e+00 +0.00000000000e+00 +1.06768910050e+03  1.06768910050e+03  0.00000000000e+00 0.0000e+00 -1.0000e+00
        2 -1    0    0  501    0 +0.00000000000e+00 +0.00000000000e+00 -7.19959252710e+02  7.19959252710e+02  0.00000000000e+00 0.0000e+00 -1.0000e+00
       24  2    1    2    0    0 +2.79021403890e+02 +2.55524185603e+02 -1.95609478201e+02  4.33479654424e+02  8.05977020789e+01 0.0000e+00 0.0000e+00
       16  1    3    3    0    0 +1.86203390308e+02 +1.93485039533e+02 -1.00175093153e+02  2.86606371830e+02  0.00000000000e+00 0.0000e+00 -1.0000e+00
      -15  1    3    3    0    0 +9.28180135820e+01 +6.20391460703e+01 -9.54343850481e+01  1.46873282594e+02  1.77700000000e+00 0.0000e+00 1.0000e+00
       24  2    1    2    0    0 -2.14982444783e+00 -3.14407390997e+01 -1.67216166987e+02  1.89867720138e+02  8.42339766869e+01 0.0000e+00 0.0000e+00
        4  1    6    6  503    0 -2.42946909451e+01 +1.96803649835e+01 -8.47273284585e+01  9.03120643199e+01  0.00000000000e+00 0.0000e+00 -1.0000e+00
       -3  1    6    6    0  503 +2.21448664973e+01 -5.11211040832e+01 -8.24888385281e+01  9.95556558183e+01  0.00000000000e+00 0.0000e+00 1.0000e+00
        1  1    1    2  501    0 -3.89111894224e+02 -1.36193307375e+02 -2.69556847756e+01  4.13138345040e+02  0.00000000000e+00 0.0000e+00 -1.0000e+00
        1  1    1    2  502    0 +1.12240314782e+02 -8.78901391287e+01 +7.37511177753e+02  7.51162633608e+02  0.00000000000e+00 0.0000e+00 -1.0000e+00
#  0.1300000e+05  0.1300000e+05  0.1300000e+05  0.1300000e+05
<mgrwt>
<rscale>  2 0.27201542e+03</rscale>
<asrwt>0</asrwt>
<pdfrwt beam="1">  1        2 0.16425986e+00 0.39877034e+03</pdfrwt>
<pdfrwt beam="2">  1        2 0.11076296e+00 0.86338714e+02</pdfrwt>
<totfact> 0.16647605e+00</totfact>
</mgrwt>
<clustering>
<clus scale="   86.339">  2  4  1 -1</clus>
<clus scale="  142.949">  2  6  1 -1</clus>
<clus scale="  390.577">  2  5  1 -1</clus>
<clus scale="  398.770">  1  3  2 -1</clus>
</clustering>
<rwgt>
  <wgt id="1">4.74807e-06</wgt>
  <wgt id="2">3.1762e-06</wgt>
  <wgt id="3">2.2782e-06</wgt>
  <wgt id="4">4.22321e-06</wgt>
  <wgt id="5">2.8251e-06</wgt>
  <wgt id="6">2.02637e-06</wgt>
  <wgt id="7">3.79132e-06</wgt>
  <wgt id="8">2.53619e-06</wgt>
  <wgt id="9">1.81914e-06</wgt>
  <wgt id="10">2.8251e-06</wgt>
  <wgt id="11">2.8251e-06</wgt>
  <wgt id="12">2.8251e-06</wgt>
  <wgt id="13">2.8251e-06</wgt>
  <wgt id="14">2.8279e-06</wgt>
  <wgt id="15">2.82276e-06</wgt>
  <wgt id="16">2.8153e-06</wgt>
  <wgt id="17">2.83595e-06</wgt>
  <wgt id="18">2.81179e-06</wgt>
  <wgt id="19">2.84478e-06</wgt>
  <wgt id="20">2.81247e-06</wgt>
  <wgt id="21">2.83361e-06</wgt>
  <wgt id="22">2.83232e-06</wgt>
  <wgt id="23">2.81483e-06</wgt>
  <wgt id="24">2.8654e-06</wgt>
  <wgt id="25">2.8002e-06</wgt>
  <wgt id="26">2.82432e-06</wgt>
  <wgt id="27">2.82621e-06</wgt>
  <wgt id="28">2.87585e-06</wgt>
  <wgt id="29">2.80675e-06</wgt>
  <wgt id="30">2.83074e-06</wgt>
  <wgt id="31">2.81796e-06</wgt>
  <wgt id="32">2.82894e-06</wgt>
  <wgt id="33">2.82139e-06</wgt>
  <wgt id="34">2.78768e-06</wgt>
  <wgt id="35">2.89426e-06</wgt>
  <wgt id="36">2.85201e-06</wgt>
  <wgt id="37">2.81024e-06</wgt>
  <wgt id="38">2.81228e-06</wgt>
  <wgt id="39">2.83141e-06</wgt>
  <wgt id="40">2.82576e-06</wgt>
  <wgt id="41">2.82487e-06</wgt>
  <wgt id="42">2.84918e-06</wgt>
  <wgt id="43">2.78485e-06</wgt>
  <wgt id="44">2.83419e-06</wgt>
  <wgt id="45">2.82167e-06</wgt>
  <wgt id="46">2.8252e-06</wgt>
  <wgt id="47">2.82531e-06</wgt>
  <wgt id="48">2.81189e-06</wgt>
  <wgt id="49">2.83401e-06</wgt>
  <wgt id="50">2.8147e-06</wgt>
  <wgt id="51">2.83941e-06</wgt>
  <wgt id="52">2.83629e-06</wgt>
  <wgt id="53">2.82211e-06</wgt>
</rwgt>
</event>
<event>
 10      0 +2.8251000e-06 1.14408200e+03 7.54677100e-03 9.24398500e-02
        2 -1    0    0  502    0 +0.00000000000e+00 +0.00000000000e+00 +1.10971803560e+03  1.10971803560e+03  0.00000000000e+00 0.0000e+00 -1.0000e+00
        2 -1    0    0  501    0 +0.00000000000e+00 +0.00000000000e+00 -2.16008258660e+03  2.16008258660e+03  0.00000000000e+00 0.0000e+00 -1.0000e+00
       24  2    1    2    0    0 -6.97732930041e+01 -1.81786339421e+02 -1.12183147541e+03  1.14158136955e+03  8.23867613920e+01 0.0000e+00 0.0000e+00
        2  1    3    3  503    0 -2.26184061104e+01 -1.50497000655e+02 -7.30994398994e+02  7.46668434355e+02  0.00000000000e+00 0.0000e+00 -1.0000e+00
       -1  1    3    3    0  503 -4.71548868937e+01 -3.12893387658e+01 -3.90837076419e+02  3.94912935193e+02  0.00000000000e+00 0.0000e+00 1.0000e+00
       24  2    1    2    0    0 +8.62188175680e+01 +1.52631600376e+01 +8.14338140897e+02  8.22996718303e+02  8.06866907353e+01 0.0000e+00 0.0000e+00
        2  1    6    6  504    0 +1.01963537777e+02 +1.12788077661e+01 +6.83833920650e+02  6.91485795641e+02  0.00000000000e+00 0.0000e+00 -1.0000e+00
       -1  1    6    6    0  504 -1.57447202093e+01 +3.98435227160e+00 +1.30504220246e+02  1.31510922663e+02  0.00000000000e+00 0.0000e+00 1.0000e+00
        1  1    1    2  501    0 -8.15115794573e+01 +9.36517580113e+01 -1.01165004175e+03  1.01924020541e+03  0.00000000000e+00 0.0000e+00 -1.0000e+00
        1  1    1    2  502    0 +6.50660548934e+01 +7.28714213720e+01 +2.68778825265e+02  2.85982328935e+02  0.00000000000e+00 0.0000e+00 -1.0000e+00
#  0.1300000e+05  0.1300000e+05  0.1300000e+05  0.1300000e+05
<mgrwt>
<rscale>  2 0.64963414e+03</rscale>
<asrwt>0</asrwt>
<pdfrwt beam="1">  1        2 0.17072585e+00 0.11893349e+03</pdfrwt>
<pdfrwt beam="2">  1        2 0.33232040e+00 0.11440817e+04</pdfrwt>
<totfact> 0.17306901e-01</totfact>
</mgrwt>
<clustering>
<clus scale="   97.644">  3  6 -1 -1</clus>
<clus scale="  118.933">  1  4  2 -1</clus>
<clus scale="  124.068">  1  5  2 -1</clus>
<clus scale=" 1144.082">  1  3  2 -1</clus>
</clustering>
<rwgt>
  <wgt id="1">5.00731e-06</wgt>
  <wgt id="2">3.51043e-06</wgt>
  <wgt id="3">2.60102e-06</wgt>
  <wgt id="4">4.02975e-06</wgt>
  <wgt id="5">2.8251e-06</wgt>
  <wgt id="6">2.09323e-06</wgt>
  <wgt id="7">3.33208e-06</wgt>
  <wgt id="8">2.336e-06</wgt>
  <wgt id="9">1.73084e-06</wgt>
  <wgt id="10">2.8251e-06</wgt>
  <wgt id="11">2.8251e-06</wgt>
  <wgt id="12">2.8251e-06</wgt>
  <wgt id="13">2.8251e-06</wgt>
  <wgt id="14">2.82823e-06</wgt>
  <wgt id="15">2.82247e-06</wgt>
  <wgt id="16">2.8043e-06</wgt>
  <wgt id="17">2.84839e-06</wgt>
  <wgt id="18">2.80986e-06</wgt>
  <wgt id="19">2.84777e-06</wgt>
  <wgt id="20">2.81803e-06</wgt>
  <wgt id="21">2.82985e-06</wgt>
  <wgt id="22">2.83444e-06</wgt>
  <wgt id="23">2.81189e-06</wgt>
  <wgt id="24">2.87541e-06</wgt>
  <wgt id="25">2.79426e-06</wgt>
  <wgt id="26">2.82575e-06</wgt>
  <wgt id="27">2.82417e-06</wgt>
  <wgt id="28">2.87098e-06</wgt>
  <wgt id="29">2.80849e-06</wgt>
  <wgt id="30">2.83049e-06</wgt>
  <wgt id="31">2.81839e-06</wgt>
  <wgt id="32">2.82283e-06</wgt>
  <wgt id="33">2.82733e-06</wgt>
  <wgt id="34">2.78058e-06</wgt>
  <wgt id="35">2.90766e-06</wgt>
  <wgt id="36">2.84629e-06</wgt>
  <wgt id="37">2.81391e-06</wgt>
  <wgt id="38">2.81451e-06</wgt>
  <wgt id="39">2.831e-06</wgt>
  <wgt id="40">2.83414e-06</wgt>
  <wgt id="41">2.81625e-06</wgt>
  <wgt id="42">2.84957e-06</wgt>
  <wgt id="43">2.78675e-06</wgt>
  <wgt id="44">2.83213e-06</wgt>
  <wgt id="45">2.82262e-06</wgt>
  <wgt id="46">2.82306e-06</wgt>
  <wgt id="47">2.82633e-06</wgt>
  <wgt id="48">2.83189e-06</wgt>
  <wgt id="49">2.82807e-06</wgt>
  <wgt id="50">2.81791e-06</wgt>
  <wgt id="51">2.83713e-06</wgt>
  <wgt id="52">2.84326e-06</wgt>
  <wgt id="53">2.8207e-06</wgt>
</rwgt>
</event>
<event>
 10      0 +2.8251000e-06 2.20855100e+02 7.54677100e-03 1.08201400e-01
       -1 -1    0    0    0  501 +0.00000000000e+00 +0.00000000000e+00 +1.15303652150e+02  1.15303652150e+02  0.00000000000e+00 0.0000e+00 1.0000e+00
        2 -1    0    0  501    0 +0.00000000000e+00 +0.00000000000e+00 -1.05291898810e+03  1.05291898810e+03  0.00000000000e+00 0.0000e+00 -1.0000e+00
       24  2    1    2    0    0 -3.35980006089e+01 +7.19155988888e+01 -4.00003885015e+02  4.14785085005e+02  7.57817900728e+01 0.0000e+00 0.0000e+00
        4  1    3    3  503    0 +1.79626007368e+01 +5.10097568640e+01 -2.01629369681e+02  2.08755965277e+02  0.00000000000e+00 0.0000e+00 -1.0000e+00
       -3  1    3    3    0  503 -5.15606013458e+01 +2.09058420247e+01 -1.98374515334e+02  2.06029119728e+02  0.00000000000e+00 0.0000e+00 1.0000e+00
       24  2    1    2    0    0 +5.60367286794e+00 +7.85311653786e+01 -6.23623248381e+00  1.19106928810e+02  8.91573037365e+01 0.0000e+00 0.0000e+00
        2  1    6    6  504    0 +2.41602045136e+01 +9.15953171062e+01 +2.57322941793e+00  9.47630682680e+01  0.00000000000e+00 0.0000e+00 -1.0000e+00
       -1  1    6    6    0  504 -1.85565316457e+01 -1.30641517276e+01 -8.80946190174e+00  2.43438605418e+01  0.00000000000e+00 0.0000e+00 1.0000e+00
        1  1    1    2  502    0 -1.13729281521e+01 +8.85085018680e+01 -2.36368571247e+02  2.52652330033e+02  0.00000000000e+00 0.0000e+00 -1.0000e+00
       -2  1    1    2    0  502 +3.93672558931e+01 -2.38955266135e+02 -2.95006647204e+02  3.81678296403e+02  0.00000000000e+00 0.0000e+00 1.0000e+00
#  0.1300000e+05  0.1300000e+05  0.1300000e+05  0.1300000e+05
<mgrwt>
<rscale>  2 0.18767473e+03</rscale>
<asrwt>0</asrwt>
<pdfrwt beam="1">  1        2 0.16198754e+00 0.22085511e+03</pdfrwt>
<pdfrwt beam="2">  1       -1 0.17739023e-01 0.11515978e+03</pdfrwt>
<totfact> 0.85909472e+00</totfact>
</mgrwt>
<clustering>
<clus scale="   90.265">  3  5 -1 -1</clus>
<clus scale="  115.160">  1  4  2 -1</clus>
<clus scale="  185.777">  1  6  2 -1</clus>
<clus scale="  220.855">  2  3  1 -1</clus>
</clustering>
<rwgt>
  <wgt id="1">4.3055e-06</wgt>
  <wgt id="2">2.81196e-06</wgt>
  <wgt id="3">1.98473e-06</wgt>
  <wgt id="4">4.32562e-06</wgt>
  <wgt id="5">2.8251e-06</wgt>
  <wgt id="6">1.99401e-06</wgt>
  <wgt id="7">4.2403e-06</wgt>
  <wgt id="8">2.76938e-06</wgt>
  <wgt id="9">1.95468e-06</wgt>
  <wgt id="10">2.8251e-06</wgt>
  <wgt id="11">2.8251e-06</wgt>
  <wgt id="12">2.8251e-06</wgt>
  <wgt id="13">2.8251e-06</wgt>
  <wgt id="14">2.83009e-06</wgt>
  <wgt id="15">2.82108e-06</wgt>
  <wgt id="16">2.83203e-06</wgt>
  <wgt id="17">2.81723e-06</wgt>
  <wgt id="18">2.81307e-06</wgt>
  <wgt id="19">2.84299e-06</wgt>
  <wgt id="20">2.82811e-06</wgt>
  <wgt id="21">2.82306e-06</wgt>
  <wgt id="22">2.83175e-06</wgt>
  <wgt id="23">2.81573e-06</wgt>
  <wgt id="24">2.86067e-06</wgt>
  <wgt id="25">2.80333e-06</wgt>
  <wgt id="26">2.82686e-06</wgt>
  <wgt id="27">2.82277e-06</wgt>
  <wgt id="28">2.84837e-06</wgt>
  <wgt id="29">2.81667e-06</wgt>
  <wgt id="30">2.83863e-06</wgt>
  <wgt id="31">2.8063e-06</wgt>
  <wgt id="32">2.83231e-06</wgt>
  <wgt id="33">2.81826e-06</wgt>
  <wgt id="34">2.79483e-06</wgt>
  <wgt id="35">2.88033e-06</wgt>
  <wgt id="36">2.85625e-06</wgt>
  <wgt id="37">2.80718e-06</wgt>
  <wgt id="38">2.81915e-06</wgt>
  <wgt id="39">2.82804e-06</wgt>
  <wgt id="40">2.824e-06</wgt>
  <wgt id="41">2.82777e-06</wgt>
  <wgt id="42">2.8434e-06</wgt>
  <wgt id="43">2.78701e-06</wgt>
  <wgt id="44">2.83051e-06</wgt>
  <wgt id="45">2.82324e-06</wgt>
  <wgt id="46">2.81503e-06</wgt>
  <wgt id="47">2.83208e-06</wgt>
  <wgt id="48">2.82698e-06</wgt>
  <wgt id="49">2.82511e-06</wgt>
  <wgt id="50">2.82032e-06</wgt>
  <wgt id="51">2.8183e-06</wgt>
  <wgt id="52">2.83984e-06</wgt>
  <wgt id="53">2.82115e-06</wgt>
</rwgt>
</event>
<event>
 12      0 +2.8251000e-06 2.00782700e+03 7.54677100e-03 8.64894200e-02
       21 -1    0    0  502  503 +0.00000000000e+00 +0.00000000000e+00 +4.97471706270e+02  4.97471706270e+02  0.00000000000e+00 0.0000e+00 1.0000e+00
        2 -1    0    0  504    0 +0.00000000000e+00 +0.00000000000e+00 -3.27886749670e+03  3.27886749670e+03  0.00000000000e+00 0.0000e+00 -1.0000e+00
       24  2    1    2    0    0 +1.86085343431e+02 +1.12875106830e+02 -6.31948313945e+02  6.73093223147e+02  7.95441435157e+01 0.0000e+00 0.0000e+00
        4  1    3    3  505    0 +1.49991525017e+02 +7.17684310756e+01 -3.72292663550e+02  4.07737651695e+02  0.00000000000e+00 0.0000e+00 -1.0000e+00
       -3  1    3    3    0  505 +3.60938184136e+01 +4.11066757546e+01 -2.59655650394e+02  2.65355571453e+02  0.00000000000e+00 0.0000e+00 1.0000e+00
       24  2    1    2    0    0 -1.19360120228e+02 -2.82261799580e+02 -1.18376371648e+02  3.38137502389e+02  8.00340137351e+01 0.0000e+00 0.0000e+00
        4  1    6    6  506    0 -8.67245094341e+01 -2.51613167701e+02 -7.67012716034e+01  2.76971860958e+02  0.00000000000e+00 0.0000e+00 -1.0000e+00
       -3  1    6    6    0  506 -3.26356107935e+01 -3.06486318787e+01 -4.16751000444e+01  6.11656414306e+01  0.00000000000e+00 0.0000e+00 1.0000e+00
       21  1    1    2  504  503 -9.72987114817e+01 +1.09268026830e+02 +1.60387811250e+01  1.47186220290e+02  0.00000000000e+00 0.0000e+00 1.0000e+00
        1  1    1    2  501    0 +3.06930637246e+02 +6.40487530364e+02 -1.76802904203e+03  1.90534967555e+03  0.00000000000e+00 0.0000e+00 -1.0000e+00
        3  1    1    2  502    0 -3.72502182833e+01 -2.18922757841e+02 -1.02941808013e+02  2.44768806223e+02  0.00000000000e+00 0.0000e+00 -1.0000e+00
       -4  1    1    2    0  501 -2.39106930685e+02 -3.61446106604e+02 -1.76139035915e+02  4.67803775374e+02  0.00000000000e+00 0.0000e+00 1.0000e+00
#  0.1300000e+05  0.1300000e+05  0.1463097e+03  0.8552821e+03  0.1300000e+05  0.3968786e+03
<mgrwt>
<rscale>  1 0.11706388e+04</rscale>
<asrwt>  3 0.14630974e+03 0.39687865e+03 0.85528214e+03</asrwt>
<pdfrwt beam="1">  2       21       21 0.76534109e-01 0.62447742e-01 0.14630974e+03 0.20078271e+04</pdfrwt>
<pdfrwt beam="2">  1        2 0.50444115e+00 0.23201322e+03</pdfrwt>
<totfact> 0.20112800e-03</totfact>
</mgrwt>
<clustering>
<clus scale="  146.310">  1  5  2 -1</clus>
<clus scale="  205.925">  4  7 -1 -1</clus>
<clus scale="  232.013">  2  3  1 -1</clus>
<clus scale="  396.879">  4  8 -1 -1</clus>
<clus scale="  855.282">  4  6 -1 -1</clus>
<clus scale=" 2007.827">  1  3  2 -1</clus>
</clustering>
<rwgt>
  <wgt id="1">4.61774e-06</wgt>
  <wgt id="2">3.91673e-06</wgt>
  <wgt id="3">3.40279e-06</wgt>
  <wgt id="4">3.33074e-06</wgt>
  <wgt id="5">2.8251e-06</wgt>
  <wgt id="6">2.4544e-06</wgt>
  <wgt id="7">2.51548e-06</wgt>
  <wgt id="8">2.1336e-06</wgt>
  <wgt id="9">1.85364e-06</wgt>
  <wgt id="10">5.06268e-06</wgt>
  <wgt id="11">2.8251e-06</wgt>
  <wgt id="12">1.74077e-06</wgt>
  <wgt id="13">2.8251e-06</wgt>
  <wgt id="14">2.83242e-06</wgt>
  <wgt id="15">2.81898e-06</wgt>
  <wgt id="16">2.80707e-06</wgt>
  <wgt id="17">2.84508e-06</wgt>
  <wgt id="18">2.8146e-06</wgt>
  <wgt id="19">2.84059e-06</wgt>
  <wgt id="20">2.82212e-06</wgt>
  <wgt id="21">2.82698e-06</wgt>
  <wgt id="22">2.83045e-06</wgt>
  <wgt id="23">2.81748e-06</wgt>
  <wgt id="24">2.85327e-06</wgt>
  <wgt id="25">2.80782e-06</wgt>
  <wgt id="26">2.82461e-06</wgt>
  <wgt id="27">2.82582e-06</wgt>
  <wgt id="28">2.82317e-06</wgt>
  <wgt id="29">2.8254e-06</wgt>
  <wgt id="30">2.80264e-06</wgt>
  <wgt id="31">2.85278e-06</wgt>
  <wgt id="32">2.81609e-06</wgt>
  <wgt id="33">2.8335e-06</wgt>
  <wgt id="34">2.82795e-06</wgt>
  <wgt id="35">2.82274e-06</wgt>
  <wgt id="36">2.82313e-06</wgt>
  <wgt id="37">2.82762e-06</wgt>
  <wgt id="38">2.80716e-06</wgt>
  <wgt id="39">2.83405e-06</wgt>
  <wgt id="40">2.83604e-06</wgt>
  <wgt id="41">2.81222e-06</wgt>
  <wgt id="42">2.82625e-06</wgt>
  <wgt id="43">2.8245e-06</wgt>
  <wgt id="44">2.82751e-06</wgt>
  <wgt id="45">2.82399e-06</wgt>
  <wgt id="46">2.8271e-06</wgt>
  <wgt id="47">2.82381e-06</wgt>
  <wgt id="48">2.84006e-06</wgt>
  <wgt id="49">2.82368e-06</wgt>
  <wgt id="50">2.83402e-06</wgt>
  <wgt id="51">2.83204e-06</wgt>
  <wgt id="52">2.8354e-06</wgt>
  <wgt id="53">2.82267e-06</wgt>
</rwgt>
</event>
<event>
 11      0 +2.8251000e-06 1.91220100e+02 7.54677100e-03 1.10246500e-01
        2 -1    0    0  501    0 +0.00000000000e+00 +0.00000000000e+00 +1.57969288600e+03  1.57969288600e+03  0.00000000000e+00 0.0000e+00 -1.0000e+00
        2 -1    0    0  503    0 +0.00000000000e+00 +0.00000000000e+00 -4.48884036860e+01  4.48884036860e+01  0.00000000000e+00 0.0000e+00 -1.0000e+00
       24  2    1    2    0    0 +5.98096725832e+01 -5.85499161571e+00 +2.76951268648e+02  2.94922343195e+02  8.16437716446e+01 0.0000e+00 0.0000e+00
        2  1    3    3  504    0 +1.24193457270e+01 +1.82594640622e+01 +2.00992024769e+02  2.02201489106e+02  0.00000000000e+00 0.0000e+00 -1.0000e+00
       -1  1    3    3    0  504 +4.73903268563e+01 -2.41144556779e+01 +7.59592438794e+01  9.27208540885e+01  0.00000000000e+00 0.0000e+00 1.0000e+00
       24  2    1    2    0    0 +7.73224611860e+01 -3.04164999214e+00 +4.94999272948e+02  5.07285959912e+02  7.95408716675e+01 0.0000e+00 0.0000e+00
       14  1    6    6    0    0 +8.92875158710e+01 +1.12795780175e+01 +3.63819950073e+02  3.74785866117e+02  0.00000000000e+00 0.0000e+00 -1.0000e+00
      -13  1    6    6    0    0 -1.19650546850e+01 -1.43212280097e+01 +1.31179322876e+02  1.32500093794e+02  0.00000000000e+00 0.0000e+00 1.0000e+00
       21  1    1    2  503  502 -5.15525819478e+01 -9.92924040948e+00 +2.19737276006e+01  5.69131199747e+01  0.00000000000e+00 0.0000e+00 -1.0000e+00
        1  1    1    2  501    0 -7.81415592180e+00 -5.45885850123e+01 +4.85071831666e+02  4.88196329894e+02  0.00000000000e+00 0.0000e+00 -1.0000e+00
        1  1    1    2  502    0 -7.77653958997e+01 +7.34144670297e+01 +2.55808381451e+02  2.77263536711e+02  0.00000000000e+00 0.0000e+00 -1.0000e+00
#  0.1300000e+05  0.1300000e+05  0.5251970e+02  0.1300000e+05  0.1300000e+05
<mgrwt>
<rscale>  2 0.16405783e+03</rscale>
<asrwt>  1 0.52519696e+02</asrwt>
<pdfrwt beam="1">  1        2 0.24302967e+00 0.10360648e+03</pdfrwt>
<pdfrwt beam="2">  2        2        2 0.69059083e-02 0.40504976e-02 0.52519696e+02 0.19122014e+03</pdfrwt>
<totfact> 0.35552000e+00</totfact>
</mgrwt>
<clustering>
<clus scale="   52.520">  2  5  1 -1</clus>
<clus scale="   56.143">  3  6 -1 -1</clus>
<clus scale="  103.606">  1  4  2 -1</clus>
<clus scale="  103.543">  1  7  2 -1</clus>
<clus scale="  191.220">  1  3  2 -1</clus>
</clustering>
<rwgt>
  <wgt id="1">4.32031e-06</wgt>
  <wgt id="2">2.79497e-06</wgt>
  <wgt id="3">1.96038e-06</wgt>
  <wgt id="4">4.36688e-06</wgt>
  <wgt id="5">2.8251e-06</wgt>
  <wgt id="6">1.98152e-06</wgt>
  <wgt id="7">4.3287e-06</wgt>
  <wgt id="8">2.8004e-06</wgt>
  <wgt id="9">1.96419e-06</wgt>
  <wgt id="10">3.69525e-06</wgt>
  <wgt id="11">2.8251e-06</wgt>
  <wgt id="12">2.29177e-06</wgt>
  <wgt id="13">2.8251e-06</wgt>
  <wgt id="14">2.82837e-06</wgt>
  <wgt id="15">2.82255e-06</wgt>
  <wgt id="16">2.82398e-06</wgt>
  <wgt id="17">2.82655e-06</wgt>
  <wgt id="18">2.8161e-06</wgt>
  <wgt id="19">2.83862e-06</wgt>
  <wgt id="20">2.82425e-06</wgt>
  <wgt id="21">2.82597e-06</wgt>
  <wgt id="22">2.82965e-06</wgt>
  <wgt id="23">2.81914e-06</wgt>
  <wgt id="24">2.84795e-06</wgt>
  <wgt id="25">2.81122e-06</wgt>
  <wgt id="26">2.82818e-06</wgt>
  <wgt id="27">2.82115e-06</wgt>
  <wgt id="28">2.84492e-06</wgt>
  <wgt id="29">2.81796e-06</wgt>
  <wgt id="30">2.83713e-06</wgt>
  <wgt id="31">2.80664e-06</wgt>
  <wgt id="32">2.82654e-06</wgt>
  <wgt id="33">2.82397e-06</wgt>
  <wgt id="34">2.78899e-06</wgt>
  <wgt id="35">2.89019e-06</wgt>
  <wgt id="36">2.83739e-06</wgt>
  <wgt id="37">2.81751e-06</wgt>
  <wgt id="38">2.82217e-06</wgt>
  <wgt id="39">2.82706e-06</wgt>
  <wgt id="40">2.83014e-06</wgt>
  <wgt id="41">2.82214e-06</wgt>
  <wgt id="42">2.83621e-06</wgt>
  <wgt id="43">2.80409e-06</wgt>
  <wgt id="44">2.8294e-06</wgt>
  <wgt id="45">2.82372e-06</wgt>
  <wgt id="46">2.81916e-06</wgt>
  <wgt id="47">2.82905e-06</wgt>
  <wgt id="48">2.82096e-06</wgt>
  <wgt id="49">2.82961e-06</wgt>
  <wgt id="50">2.81139e-06</wgt>
  <wgt id="51">2.8287e-06</wgt>
  <wgt id="52">2.83354e-06</wgt>
  <wgt id="53">2.82319e-06</wgt>
</rwgt>
</event>
<event>
 10      0 +2.8251000e-06 1.68963100e+02 7.54677100e-03 1.10250300e-01
        2 -1    0    0  501    0 +0.00000000000e+00 +0.00000000000e+00 +1.49009428580e+03  1.49009428580e+03  0.00000000000e+00 0.0000e+00 -1.0000e+00
        2 -1    0    0  502    0 +0.00000000000e+00 +0.00000000000e+00 -3.99381018640e+02  3.99381018640e+02  0.00000000000e+00 0.0000e+00 -1.0000e+00
       24  2    1    2    0    0 +4.02475868144e-01 +3.65001190795e+01 +1.20878271994e+03  1.21229585495e+03  8.46944816565e+01 0.0000e+00 0.0000e+00
        2  1    3    3  503    0 +2.21112388501e+01 +4.80442637119e+01 +1.07315738695e+03  1.07445983421e+03  0.00000000000e+00 0.0000e+00 -1.0000e+00
       -1  1    3    3    0  503 -2.17087629819e+01 -1.15441446324e+01 +1.35625332992e+02  1.37836020744e+02  0.00000000000e+00 0.0000e+00 1.0000e+00
       24  2    1    2    0    0 -4.06861018851e+00 -1.72367839308e+01 -2.18785836773e+02  2.34246104347e+02  8.17944663178e+01 0.0000e+00 0.0000e+00
        2  1    6    6  504    0 -1.37301900194e+01 -1.76771705624e+01 -2.22693038008e+02  2.23815079148e+02  0.00000000000e+00 0.0000e+00 -1.0000e+00
       -1  1    6    6    0  504 +9.66157983089e+00 +4.40386631561e-01 +3.90720123458e+00  1.04310251990e+01  0.00000000000e+00 0.0000e+00 1.0000e+00
        1  1    1    2  501    0 -4.58381076254e+01 -4.78489176950e+01 -1.61496464097e+02  1.74561619353e+02  0.00000000000e+00 0.0000e+00 -1.0000e+00
        1  1    1    2  502    0 +4.95042419458e+01 +2.85855825462e+01 +2.62212848086e+02  2.68371725787e+02  0.00000000000e+00 0.0000e+00 -1.0000e+00
#  0.1300000e+05  0.1300000e+05  0.1300000e+05  0.1300000e+05
<mgrwt>
<rscale>  2 0.16401694e+03</rscale>
<asrwt>0</asrwt>
<pdfrwt beam="1">  1        2 0.22924527e+00 0.16896308e+03</pdfrwt>
<pdfrwt beam="2">  1        2 0.61443234e-01 0.15003042e+03</pdfrwt>
<totfact> 0.22162429e+00</totfact>
</mgrwt>
<clustering>
<clus scale="   59.920">  3  6 -1 -1</clus>
<clus scale="   67.888">  4  5 -1 -1</clus>
<clus scale="  150.030">  2  4  1 -1</clus>
<clus scale="  168.963">  1  3  2 -1</clus>
</clustering>
<rwgt>
  <wgt id="1">4.91846e-06</wgt>
  <wgt id="2">3.18188e-06</wgt>
  <wgt id="3">2.23173e-06</wgt>
  <wgt id="4">4.36696e-06</wgt>
  <wgt id="5">2.8251e-06</wgt>
  <wgt id="6">1.98149e-06</wgt>
  <wgt id="7">3.91459e-06</wgt>
  <wgt id="8">2.53245e-06</wgt>
  <wgt id="9">1.77623e-06</wgt>
  <wgt id="10">2.8251e-06</wgt>
  <wgt id="11">2.8251e-06</wgt>
  <wgt id="12">2.8251e-06</wgt>
  <wgt id="13">2.8251e-06</wgt>
  <wgt id="14">2.82819e-06</wgt>
  <wgt id="15">2.82261e-06</wgt>
  <wgt id="16">2.81724e-06</wgt>
  <wgt id="17">2.83382e-06</wgt>
  <wgt id="18">2.81216e-06</wgt>
  <wgt id="19">2.84439e-06</wgt>
  <wgt id="20">2.81554e-06</wgt>
  <wgt id="21">2.83158e-06</wgt>
  <wgt id="22">2.83232e-06</wgt>
  <wgt id="23">2.81487e-06</wgt>
  <wgt id="24">2.86498e-06</wgt>
  <wgt id="25">2.80054e-06</wgt>
  <wgt id="26">2.82456e-06</wgt>
  <wgt id="27">2.82591e-06</wgt>
  <wgt id="28">2.86837e-06</wgt>
  <wgt id="29">2.80944e-06</wgt>
  <wgt id="30">2.83046e-06</wgt>
  <wgt id="31">2.81819e-06</wgt>
  <wgt id="32">2.8284e-06</wgt>
  <wgt id="33">2.82197e-06</wgt>
  <wgt id="34">2.78817e-06</wgt>
  <wgt id="35">2.89317e-06</wgt>
  <wgt id="36">2.8374e-06</wgt>
  <wgt id="37">2.81929e-06</wgt>
  <wgt id="38">2.8165e-06</wgt>
  <wgt id="39">2.82961e-06</wgt>
  <wgt id="40">2.82787e-06</wgt>
  <wgt id="41">2.82269e-06</wgt>
  <wgt id="42">2.84713e-06</wgt>
  <wgt id="43">2.78685e-06</wgt>
  <wgt id="44">2.83376e-06</wgt>
  <wgt id="45">2.82184e-06</wgt>
  <wgt id="46">2.82403e-06</wgt>
  <wgt id="47">2.82604e-06</wgt>
  <wgt id="48">2.80851e-06</wgt>
  <wgt id="49">2.83591e-06</wgt>
  <wgt id="50">2.81558e-06</wgt>
  <wgt id="51">2.83768e-06</wgt>
  <wgt id="52">2.83296e-06</wgt>
  <wgt id="53">2.82308e-06</wgt>
</rwgt>
</event>
<event>
 10      0 +2.8251000e-06 6.97838000e+02 7.54677100e-03 9.49924200e-02
        2 -1    0    0  502    0 +0.00000000000e+00 +0.00000000000e+00 +3.70800677810e+02  3.70800677810e+02  0.00000000000e+00 0.0000e+00 -1.0000e+00
        2 -1    0    0  501    0 +0.00000000000e+00 +0.00000000000e+00 -1.07622275470e+03  1.07622275470e+03  0.00000000000e+00 0.0000e+00 -1.0000e+00
       24  2    1    2    0    0 +9.40977178762e+01 -5.93121845592e+01 +3.39275624520e+02  3.69600677124e+02  9.55217011475e+01 0.0000e+00 0.0000e+00
       12  1    3    3    0    0 +7.84924336471e+01 -1.11520137309e+01 +2.83043182863e+02  2.93936851918e+02  0.00000000000e+00 0.0000e+00 -1.0000e+00
      -11  1    3    3    0    0 +1.56052842291e+01 -4.81601708283e+01 +5.62324416573e+01  7.56638252061e+01  0.00000000000e+00 0.0000e+00 1.0000e+00
       24  2    1    2    0    0 -9.98496541030e+01 +1.53584824657e+01 -6.61080509369e+02  6.73563725988e+02  8.03418738265e+01 0.0000e+00 0.0000e+00
        4  1    6    6  503    0 -1.07675569298e+02 -4.45957392906e+00 -5.52927145405e+02  5.63331469163e+02  0.00000000000e+00 0.0000e+00 -1.0000e+00
       -3  1    6    6    0  503 +7.82591519454e+00 +1.98180563948e+01 -1.08153363964e+02  1.10232256825e+02  0.00000000000e+00 0.0000e+00 1.0000e+00
        1  1    1    2  501    0 +4.38095239219e+01 +1.66199595105e+01 -3.27124746561e+02  3.30463458272e+02  0.00000000000e+00 0.0000e+00 -1.0000e+00
        1  1    1    2  502    0 -3.80575876952e+01 +2.73337425830e+01 -5.64924454796e+01  7.33955711268e+01  0.00000000000e+00 0.0000e+00 -1.0000e+00
#  0.1300000e+05  0.1300000e+05  0.1300000e+05  0.1300000e+05
<mgrwt>
<rscale>  2 0.51640251e+03</rscale>
<asrwt>0</asrwt>
<pdfrwt beam="1">  1        2 0.57046258e-01 0.69783802e+03</pdfrwt>
<pdfrwt beam="2">  1        2 0.16557273e+00 0.20926157e+03</pdfrwt>
<totfact> 0.29346901e+00</totfact>
</mgrwt>
<clustering>
<clus scale="   46.828">  3  5 -1 -1</clus>
<clus scale="   48.065">  4  6 -1 -1</clus>
<clus scale="  209.262">  2  4  1 -1</clus>
<clus scale="  697.838">  1  3  2 -1</clus>
</clustering>
<rwgt>
  <wgt id="1">4.43877e-06</wgt>
  <wgt id="2">3.07706e-06</wgt>
  <wgt id="3">2.26189e-06</wgt>
  <wgt id="4">4.07531e-06</wgt>
  <wgt id="5">2.8251e-06</wgt>
  <wgt id="6">2.07668e-06</wgt>
  <wgt id="7">3.76186e-06</wgt>
  <wgt id="8">2.60781e-06</wgt>
  <wgt id="9">1.91696e-06</wgt>
  <wgt id="10">2.8251e-06</wgt>
  <wgt id="11">2.8251e-06</wgt>
  <wgt id="12">2.8251e-06</wgt>
  <wgt id="13">2.8251e-06</wgt>
  <wgt id="14">2.82813e-06</wgt>
  <wgt id="15">2.82256e-06</wgt>
  <wgt id="16">2.82001e-06</wgt>
  <wgt id="17">2.83063e-06</wgt>
  <wgt id="18">2.81262e-06</wgt>
  <wgt id="19">2.84353e-06</wgt>
  <wgt id="20">2.81352e-06</wgt>
  <wgt id="21">2.83285e-06</wgt>
  <wgt id="22">2.83163e-06</wgt>
  <wgt id="23">2.81578e-06</wgt>
  <wgt id="24">2.86183e-06</wgt>
  <wgt id="25">2.8024e-06</wgt>
  <wgt id="26">2.82405e-06</wgt>
  <wgt id="27">2.82651e-06</wgt>
  <wgt id="28">2.86829e-06</wgt>
  <wgt id="29">2.80942e-06</wgt>
  <wgt id="30">2.82999e-06</wgt>
  <wgt id="31">2.81878e-06</wgt>
  <wgt id="32">2.82957e-06</wgt>
  <wgt id="33">2.82081e-06</wgt>
  <wgt id="34">2.79126e-06</wgt>
  <wgt id="35">2.88734e-06</wgt>
  <wgt id="36">2.84163e-06</wgt>
  <wgt id="37">2.81656e-06</wgt>
  <wgt id="38">2.81473e-06</wgt>
  <wgt id="39">2.83017e-06</wgt>
  <wgt id="40">2.82583e-06</wgt>
  <wgt id="41">2.82478e-06</wgt>
  <wgt id="42">2.8467e-06</wgt>
  <wgt id="43">2.78693e-06</wgt>
  <wgt id="44">2.83449e-06</wgt>
  <wgt id="45">2.82149e-06</wgt>
  <wgt id="46">2.8249e-06</wgt>
  <wgt id="47">2.82559e-06</wgt>
  <wgt id="48">2.80412e-06</wgt>
  <wgt id="49">2.83693e-06</wgt>
  <wgt id="50">2.81489e-06</wgt>
  <wgt id="51">2.83823e-06</wgt>
  <wgt id="52">2.83142e-06</wgt>
  <wgt id="53">2.82332e-06</wgt>
</rwgt>
</event>
<event>
 11      0 +2.8251000e-06 4.23283000e+02 7.54677100e-03 9.86576400e-02
        2 -1    0    0  503    0 +0.00000000000e+00 +0.00000000000e+00 +5.29062244420e+02  5.29062244420e+02  0.00000000000e+00 0.0000e+00 -1.0000e+00
        2 -1    0    0  502    0 +0.00000000000e+00 +0.00000000000e+00 -2.18687721870e+03  2.18687721870e+03  0.00000000000e+00 0.0000e+00 -1.0000e+00
       24  2    1    2    0    0 +1.15249291275e+01 +9.57187830166e+01 +2.75048647591e+01  1.31036718887e+02  8.43753204303e+01 0.0000e+00 0.0000e+00
        4  1    3    3  504    0 -1.23195216663e+01 -9.70185993970e+00 -7.55877948996e+00  1.74078099643e+01  0.00000000000e+00 0.0000e+00 -1.0000e+00
       -3  1    3    3    0  504 +2.38444507937e+01 +1.05420642956e+02 +3.50636442491e+01  1.13628908923e+02  0.00000000000e+00 0.0000e+00 1.0000e+00
       24  2    1    2    0    0 +1.52761775555e+02 +8.91485331758e+01 -2.36038636962e+02  3.05571062966e+02  7.98487028408e+01 0.0000e+00 0.0000e+00
       12  1    6    6    0    0 +5.20754956953e+01 +6.31211055967e+01 -1.48857136548e+02  1.69866354305e+02  0.00000000000e+00 0.0000e+00 -1.0000e+00
      -11  1    6    6    0    0 +1.00686279860e+02 +2.60274275791e+01 -8.71815004142e+01  1.35704708661e+02  0.00000000000e+00 0.0000e+00 1.0000e+00
       21  1    1    2  503  501 +1.97165073631e+02 -3.42730200172e+02 -3.66815281111e+02  5.39343588843e+02  0.00000000000e+00 0.0000e+00 -1.0000e+00
        1  1    1    2  501    0 +4.53974809960e+02 -7.03371332138e+01 -6.30651479336e+02  7.80231842964e+02  0.00000000000e+00 0.0000e+00 -1.0000e+00
        1  1    1    2  502    0 -8.15426588273e+02 +2.28200017193e+02 -4.51814441631e+02  9.59756249459e+02  0.00000000000e+00 0.0000e+00 -1.0000e+00
#  0.1300000e+05  0.1300000e+05  0.3362986e+03  0.1300000e+05  0.1300000e+05
<mgrwt>
<rscale>  2 0.37931192e+03</rscale>
<asrwt>  1 0.33629859e+03</asrwt>
<pdfrwt beam="1">  1        2 0.81394191e-01 0.12805730e+03</pdfrwt>
<pdfrwt beam="2">  1        2 0.33644265e+00 0.19858281e+03</pdfrwt>
<totfact> 0.55690425e-02</totfact>
</mgrwt>
<clustering>
<clus scale="  128.057">  1  3  2 -1</clus>
<clus scale="  198.583">  2  4  1 -1</clus>
<clus scale="  336.299">  5  6 -1 -1</clus>
<clus scale="  813.817">  1  7  2 -1</clus>
<clus scale="  902.236">  1  3  2 -1</clus>
</clustering>
<rwgt>
  <wgt id="1">4.992e-06</wgt>
  <wgt id="2">3.40505e-06</wgt>
  <wgt id="3">2.47479e-06</wgt>
  <wgt id="4">4.14176e-06</wgt>
  <wgt id="5">2.8251e-06</wgt>
  <wgt id="6">2.05329e-06</wgt>
  <wgt id="7">3.51516e-06</wgt>
  <wgt id="8">2.3977e-06</wgt>
  <wgt id="9">1.74265e-06</wgt>
  <wgt id="10">3.43245e-06</wgt>
  <wgt id="11">2.8251e-06</wgt>
  <wgt id="12">2.4029e-06</wgt>
  <wgt id="13">2.8251e-06</wgt>
  <wgt id="14">2.82831e-06</wgt>
  <wgt id="15">2.82254e-06</wgt>
  <wgt id="16">2.81164e-06</wgt>
  <wgt id="17">2.84017e-06</wgt>
  <wgt id="18">2.81081e-06</wgt>
  <wgt id="19">2.84646e-06</wgt>
  <wgt id="20">2.81595e-06</wgt>
  <wgt id="21">2.83137e-06</wgt>
  <wgt id="22">2.83341e-06</wgt>
  <wgt id="23">2.81348e-06</wgt>
  <wgt id="24">2.87044e-06</wgt>
  <wgt id="25">2.79732e-06</wgt>
  <wgt id="26">2.82478e-06</wgt>
  <wgt id="27">2.82559e-06</wgt>
  <wgt id="28">2.86491e-06</wgt>
  <wgt id="29">2.81067e-06</wgt>
  <wgt id="30">2.82966e-06</wgt>
  <wgt id="31">2.8194e-06</wgt>
  <wgt id="32">2.82454e-06</wgt>
  <wgt id="33">2.82575e-06</wgt>
  <wgt id="34">2.78471e-06</wgt>
  <wgt id="35">2.89986e-06</wgt>
  <wgt id="36">2.83935e-06</wgt>
  <wgt id="37">2.81924e-06</wgt>
  <wgt id="38">2.81695e-06</wgt>
  <wgt id="39">2.82979e-06</wgt>
  <wgt id="40">2.83311e-06</wgt>
  <wgt id="41">2.81738e-06</wgt>
  <wgt id="42">2.84747e-06</wgt>
  <wgt id="43">2.78772e-06</wgt>
  <wgt id="44">2.83492e-06</wgt>
  <wgt id="45">2.82139e-06</wgt>
  <wgt id="46">2.8245e-06</wgt>
  <wgt id="47">2.82579e-06</wgt>
  <wgt id="48">2.81805e-06</wgt>
  <wgt id="49">2.83294e-06</wgt>
  <wgt id="50">2.81638e-06</wgt>
  <wgt id="51">2.83821e-06</wgt>
  <wgt id="52">2.83597e-06</wgt>
  <wgt id="53">2.82251e-06</wgt>
</rwgt>
</event>
<event>
 12      0 +2.8251000e-06 2.48507400e+02 7.54677100e-03 1.07165300e-01
        2 -1    0    0  503    0 +0.00000000000e+00 +0.00000000000e+00 +1.03824613320e+03  1.03824613320e+03  0.00000000000e+00 0.0000e+00 -1.0000e+00
        2 -1    0    0  502    0 +0.00000000000e+00 +0.00000000000e+00 -5.06021085310e+02  5.06021085310e+02  0.00000000000e+00 0.0000e+00 -1.0000e+00
       24  2    1    2    0    0 +1.87247351230e+01 -2.10492811624e+00 -6.75819932606e+01  1.07363014263e+02  8.12677340081e+01 0.0000e+00 0.0000e+00
       16  1    3    3    0    0 -1.95735846618e+01 +2.83762096434e+01 -2.74232370657e+01  4.40496131811e+01  0.00000000000e+00 0.0000e+00 -1.0000e+00
      -15  1    3    3    0    0 +3.82983197849e+01 -3.04811377597e+01 -4.01587561949e+01  6.33134010822e+01  1.77700000000e+00 0.0000e+00 1.0000e+00
       24  2    1    2    0    0 +7.19765901572e+01 +1.65292585869e+02 +1.90556259141e+02  2.73570156923e+02  7.76316584053e+01 0.0000e+00 0.0000e+00
        4  1    6    6  505    0 +7.66411305172e+01 +8.77156975800e+01 +9.44668394215e+01  1.49972965028e+02  0.00000000000e+00 0.0000e+00 -1.0000e+00
       -3  1    6    6    0  505 -4.66454035999e+00 +7.75768882892e+01 +9.60894197197e+01  1.23597191895e+02  0.00000000000e+00 0.0000e+00 1.0000e+00
       21  1    1    2  503  504 +3.89334949811e+01 +1.19767917246e+01 +2.08508394659e+02  2.12450020511e+02  0.00000000000e+00 0.0000e+00 -1.0000e+00
       21  1    1    2  504  501 +1.41464903097e+02 +2.95707674301e+02 -6.00671751903e+01  3.33261778462e+02  0.00000000000e+00 0.0000e+00 -1.0000e+00
        1  1    1    2  501    0 -5.66091934935e+01 -9.16820640039e+01 -3.96117596117e+00  1.07823432347e+02  0.00000000000e+00 0.0000e+00 -1.0000e+00
        1  1    1    2  502    0 -2.14490529865e+02 -3.79190059774e+02 +2.64770738501e+02  5.09798816005e+02  0.00000000000e+00 0.0000e+00 -1.0000e+00
#  0.1300000e+05  0.1300000e+05  0.4073402e+02  0.3204866e+03  0.1300000e+05  0.1300000e+05
<mgrwt>
<rscale>  3 0.20132124e+03</rscale>
<asrwt>  1 0.40734022e+02</asrwt>
<pdfrwt beam="1">  2        2        2 0.15973017e+00 0.12672665e+00 0.40734022e+02 0.24850738e+03</pdfrwt>
<pdfrwt beam="2">  1        2 0.77849398e-01 0.82998432e+02</pdfrwt>
<totfact> 0.44871577e-02</totfact>
</mgrwt>
<clustering>
<clus scale="   40.734">  1  5  2 -1</clus>
<clus scale="   82.998">  2  3  1 -1</clus>
<clus scale="  105.677">  2  7  1 -1</clus>
<clus scale="  192.694">  1  4  2 -1</clus>
<clus scale="  320.487">  2  6  1 -1</clus>
<clus scale="  320.487">  1  3  2 -1</clus>
</clustering>
<rwgt>
  <wgt id="1">5.70087e-06</wgt>
  <wgt id="2">3.03044e-06</wgt>
  <wgt id="3">1.80555e-06</wgt>
  <wgt id="4">5.31458e-06</wgt>
  <wgt id="5">2.8251e-06</wgt>
  <wgt id="6">1.6832e-06</wgt>
  <wgt id="7">4.94987e-06</wgt>
  <wgt id="8">2.63123e-06</wgt>
  <wgt id="9">1.56769e-06</wgt>
  <wgt id="10">3.75074e-06</wgt>
  <wgt id="11">2.8251e-06</wgt>
  <wgt id="12">2.27173e-06</wgt>
  <wgt id="13">2.8251e-06</wgt>
  <wgt id="14">2.82792e-06</wgt>
  <wgt id="15">2.82268e-06</wgt>
  <wgt id="16">2.81885e-06</wgt>
  <wgt id="17">2.8318e-06</wgt>
  <wgt id="18">2.81219e-06</wgt>
  <wgt id="19">2.84401e-06</wgt>
  <wgt id="20">2.81211e-06</wgt>
  <wgt id="21">2.8337e-06</wgt>
  <wgt id="22">2.83172e-06</wgt>
  <wgt id="23">2.8155e-06</wgt>
  <wgt id="24">2.863e-06</wgt>
  <wgt id="25">2.80158e-06</wgt>
  <wgt id="26">2.82383e-06</wgt>
  <wgt id="27">2.82663e-06</wgt>
  <wgt id="28">2.87175e-06</wgt>
  <wgt id="29">2.80815e-06</wgt>
  <wgt id="30">2.83029e-06</wgt>
  <wgt id="31">2.81831e-06</wgt>
  <wgt id="32">2.8296e-06</wgt>
  <wgt id="33">2.8207e-06</wgt>
  <wgt id="34">2.78966e-06</wgt>
  <wgt id="35">2.89016e-06</wgt>
  <wgt id="36">2.84668e-06</wgt>
  <wgt id="37">2.81362e-06</wgt>
  <wgt id="38">2.81368e-06</wgt>
  <wgt id="39">2.83062e-06</wgt>
  <wgt id="40">2.82542e-06</wgt>
  <wgt id="41">2.82505e-06</wgt>
  <wgt id="42">2.84782e-06</wgt>
  <wgt id="43">2.78542e-06</wgt>
  <wgt id="44">2.83497e-06</wgt>
  <wgt id="45">2.82123e-06</wgt>
  <wgt id="46">2.82533e-06</wgt>
  <wgt id="47">2.82515e-06</wgt>
  <wgt id="48">2.805e-06</wgt>
  <wgt id="49">2.83651e-06</wgt>
  <wgt id="50">2.81417e-06</wgt>
  <wgt id="51">2.83936e-06</wgt>
  <wgt id="52">2.83251e-06</wgt>
  <wgt id="53">2.82296e-06</wgt>
</rwgt>
</event>
<event>
 10      0 +2.8251000e-06 1.55456200e+02 7.54677100e-03 1.11288600e-01
       -3 -1    0    0    0  501 +0.00000000000e+00 +0.00000000000e+00 +1.89317861340e+02  1.89317861340e+02  0.00000000000e+00 0.0000e+00 1.0000e+00
        2 -1    0    0  501    0 +0.00000000000e+00 +0.00000000000e+00 -1.21442469400e+03  1.21442469400e+03  0.00000000000e+00 0.0000e+00 -1.0000e+00
       24  2    1    2    0    0 -3.32605773053e+01 +5.24083658619e+01 +6.97950450835e+01  1.23315347672e+02  8.05135009687e+01 0.0000e+00 0.0000e+00
        2  1    3    3  503    0 -2.16762427211e+01 +4.93551469882e+01 +1.44644228902e+00  5.39247830596e+01  0.00000000000e+00 0.0000e+00 -1.0000e+00
       -1  1    3    3    0  503 -1.15843345842e+01 +3.05321887368e+00 +6.83486027945e+01  6.93905646122e+01  0.00000000000e+00 0.0000e+00 1.0000e+00
       24  2    1    2    0    0 +1.79468657283e+01 -6.76788688365e+01 -1.10044600287e+02  1.51456395583e+02  7.69851052752e+01 0.0000e+00 0.0000e+00
        4  1    6    6  504    0 +3.10013784024e+01 -7.98776944491e+01 -9.64026400727e+01  1.28976744207e+02  0.00000000000e+00 0.0000e+00 -1.0000e+00
       -3  1    6    6    0  504 -1.30545126741e+01 +1.21988256126e+01 -1.36419602143e+01  2.24796513757e+01  0.00000000000e+00 0.0000e+00 1.0000e+00
        1  1    1    2  502    0 +1.89881954917e+02 +1.72559474201e+02 -7.66114224547e+02  8.07937456733e+02  0.00000000000e+00 0.0000e+00 -1.0000e+00
       -4  1    1    2    0  502 -1.74568243340e+02 -1.57288971226e+02 -2.18743052910e+02  3.21033355352e+02  0.00000000000e+00 0.0000e+00 1.0000e+00
#  0.1300000e+05  0.1300000e+05  0.1300000e+05  0.1300000e+05
<mgrwt>
<rscale>  2 0.15346960e+03</rscale>
<asrwt>0</asrwt>
<pdfrwt beam="1">  1        2 0.18683457e+00 0.96522876e+02</pdfrwt>
<pdfrwt beam="2">  1       -3 0.29125825e-01 0.10161846e+03</pdfrwt>
<totfact> 0.24687287e+00</totfact>
</mgrwt>
<clustering>
<clus scale="  101.618">  1  3  2 -1</clus>
<clus scale="   96.523">  2  4  1 -1</clus>
<clus scale="  237.817">  2  5  1 -1</clus>
<clus scale="  237.817">  2  3  1 -1</clus>
</clustering>
<rwgt>
  <wgt id="1">4.45578e-06</wgt>
  <wgt id="2">2.86845e-06</wgt>
  <wgt id="3">2.00556e-06</wgt>
  <wgt id="4">4.38844e-06</wgt>
  <wgt id="5">2.8251e-06</wgt>
  <wgt id="6">1.97525e-06</wgt>
  <wgt id="7">4.20691e-06</wgt>
  <wgt id="8">2.70824e-06</wgt>
  <wgt id="9">1.89354e-06</wgt>
  <wgt id="10">2.8251e-06</wgt>
  <wgt id="11">2.8251e-06</wgt>
  <wgt id="12">2.8251e-06</wgt>
  <wgt id="13">2.8251e-06</wgt>
  <wgt id="14">2.83259e-06</wgt>
  <wgt id="15">2.81886e-06</wgt>
  <wgt id="16">2.7975e-06</wgt>
  <wgt id="17">2.85598e-06</wgt>
  <wgt id="18">2.84299e-06</wgt>
  <wgt id="19">2.79817e-06</wgt>
  <wgt id="20">2.80344e-06</wgt>
  <wgt id="21">2.83967e-06</wgt>
  <wgt id="22">2.84548e-06</wgt>
  <wgt id="23">2.79618e-06</wgt>
  <wgt id="24">2.84042e-06</wgt>
  <wgt id="25">2.8155e-06</wgt>
  <wgt id="26">2.82637e-06</wgt>
  <wgt id="27">2.82342e-06</wgt>
  <wgt id="28">2.84807e-06</wgt>
  <wgt id="29">2.81667e-06</wgt>
  <wgt id="30">2.84237e-06</wgt>
  <wgt id="31">2.80198e-06</wgt>
  <wgt id="32">2.8201e-06</wgt>
  <wgt id="33">2.82986e-06</wgt>
  <wgt id="34">2.78942e-06</wgt>
  <wgt id="35">2.89108e-06</wgt>
  <wgt id="36">2.84724e-06</wgt>
  <wgt id="37">2.81172e-06</wgt>
  <wgt id="38">2.81225e-06</wgt>
  <wgt id="39">2.83121e-06</wgt>
  <wgt id="40">2.83055e-06</wgt>
  <wgt id="41">2.82122e-06</wgt>
  <wgt id="42">2.83791e-06</wgt>
  <wgt id="43">2.80287e-06</wgt>
  <wgt id="44">2.80567e-06</wgt>
  <wgt id="45">2.83252e-06</wgt>
  <wgt id="46">2.85749e-06</wgt>
  <wgt id="47">2.80136e-06</wgt>
  <wgt id="48">2.81774e-06</wgt>
  <wgt id="49">2.8313e-06</wgt>
  <wgt id="50">2.82728e-06</wgt>
  <wgt id="51">2.81252e-06</wgt>
  <wgt id="52">2.76016e-06</wgt>
  <wgt id="53">2.85232e-06</wgt>
</rwgt>
</event>
<event>
 10      0 +2.8251000e-06 1.77648900e+02 7.54677100e-03 1.11640700e-01
        2 -1    0    0  501    0 +0.00000000000e+00 +0.00000000000e+00 +2.30558160170e+03  2.30558160170e+03  0.00000000000e+00 0.0000e+00 -1.0000e+00
       -1 -1    0    0    0  501 +0.00000000000e+00 +0.00000000000e+00 -8.85630564840e+01  8.85630564840e+01  0.00000000000e+00 0.0000e+00 1.0000e+00
       24  2    1    2    0    0 -4.38220970771e+01 -1.30740354700e+02 +5.67792615557e+02  5.89806668103e+02  8.04365272609e+01 0.0000e+00 0.0000e+00
       12  1    3    3    0    0 -4.74458359536e+01 -1.37505984607e+02 +5.61019541260e+02  5.79570469251e+02  0.00000000000e+00 0.0000e+00 -1.0000e+00
      -11  1    3    3    0    0 +3.62373887652e+00 +6.76562990794e+00 +6.77307429750e+00  1.02361988519e+01  0.00000000000e+00 0.0000e+00 1.0000e+00
       24  2    1    2    0    0 -4.16977497156e+01 -3.75734213709e+00 +1.87069347492e+01  9.29032046015e+01  8.07975003712e+01 0.0000e+00 0.0000e+00
        4  1    6    6  503    0 +1.10018404872e+01 +2.05268409332e+01 +2.54375638937e+01  3.44885683909e+01  0.00000000000e+00 0.0000e+00 -1.0000e+00
       -3  1    6    6    0  503 -5.26995902028e+01 -2.42841830703e+01 -6.73062914451e+00  5.84146362106e+01  0.00000000000e+00 0.0000e+00 1.0000e+00
        1  1    1    2  502    0 +1.60523858364e+02 +8.44152605487e+01 +1.60837456142e+03  1.61856806318e+03  0.00000000000e+00 0.0000e+00 -1.0000e+00
       -2  1    1    2    0  502 -7.50040115714e+01 +5.00824362880e+01 +2.21444334886e+01  9.28667223007e+01  0.00000000000e+00 0.0000e+00 1.0000e+00
#  0.1300000e+05  0.1300000e+05  0.1300000e+05  0.1300000e+05
<mgrwt>
<rscale>  2 0.15009243e+03</rscale>
<asrwt>0</asrwt>
<pdfrwt beam="1">  1        2 0.35470486e+00 0.17764891e+03</pdfrwt>
<pdfrwt beam="2">  1       -1 0.13625086e-01 0.90520635e+02</pdfrwt>
<totfact> 0.29117614e+00</totfact>
</mgrwt>
<clustering>
<clus scale="   90.521">  2  4  1 -1</clus>
<clus scale="  114.225">  2  6  1 -1</clus>
<clus scale="  158.404">  2  5  1 -1</clus>
<clus scale="  177.649">  1  3  2 -1</clus>
</clustering>
<rwgt>
  <wgt id="1">4.70475e-06</wgt>
  <wgt id="2">3.02371e-06</wgt>
  <wgt id="3">2.11186e-06</wgt>
  <wgt id="4">4.39572e-06</wgt>
  <wgt id="5">2.8251e-06</wgt>
  <wgt id="6">1.97314e-06</wgt>
  <wgt id="7">4.04931e-06</wgt>
  <wgt id="8">2.60246e-06</wgt>
  <wgt id="9">1.81764e-06</wgt>
  <wgt id="10">2.8251e-06</wgt>
  <wgt id="11">2.8251e-06</wgt>
  <wgt id="12">2.8251e-06</wgt>
  <wgt id="13">2.8251e-06</wgt>
  <wgt id="14">2.82995e-06</wgt>
  <wgt id="15">2.82116e-06</wgt>
  <wgt id="16">2.82429e-06</wgt>
  <wgt id="17">2.82592e-06</wgt>
  <wgt id="18">2.81218e-06</wgt>
  <wgt id="19">2.84443e-06</wgt>
  <wgt id="20">2.83024e-06</wgt>
  <wgt id="21">2.82167e-06</wgt>
  <wgt id="22">2.83252e-06</wgt>
  <wgt id="23">2.81465e-06</wgt>
  <wgt id="24">2.86401e-06</wgt>
  <wgt id="25">2.8014e-06</wgt>
  <wgt id="26">2.82807e-06</wgt>
  <wgt id="27">2.82109e-06</wgt>
  <wgt id="28">2.83803e-06</wgt>
  <wgt id="29">2.82033e-06</wgt>
  <wgt id="30">2.83907e-06</wgt>
  <wgt id="31">2.80486e-06</wgt>
  <wgt id="32">2.82549e-06</wgt>
  <wgt id="33">2.82476e-06</wgt>
  <wgt id="34">2.78706e-06</wgt>
  <wgt id="35">2.89444e-06</wgt>
  <wgt id="36">2.84848e-06</wgt>
  <wgt id="37">2.81293e-06</wgt>
  <wgt id="38">2.82143e-06</wgt>
  <wgt id="39">2.82749e-06</wgt>
  <wgt id="40">2.83356e-06</wgt>
  <wgt id="41">2.81834e-06</wgt>
  <wgt id="42">2.84082e-06</wgt>
  <wgt id="43">2.79324e-06</wgt>
  <wgt id="44">2.83086e-06</wgt>
  <wgt id="45">2.82306e-06</wgt>
  <wgt id="46">2.81443e-06</wgt>
  <wgt id="47">2.83222e-06</wgt>
  <wgt id="48">2.83861e-06</wgt>
  <wgt id="49">2.82213e-06</wgt>
  <wgt id="50">2.81797e-06</wgt>
  <wgt id="51">2.81964e-06</wgt>
  <wgt id="52">2.84209e-06</wgt>
  <wgt id="53">2.82093e-06</wgt>
</rwgt>
</event>
<event>
 11      0 +2.8251000e-06 3.12099300e+02 7.54677100e-03 1.04305300e-01
        2 -1    0    0  502    0 +0.00000000000e+00 +0.00000000000e+00 +2.20746691950e+03  2.20746691950e+03  0.00000000000e+00 0.0000e+00 -1.0000e+00
        2 -1    0    0  503    0 +0.00000000000e+00 +0.00000000000e+00 -1.25769274660e+03  1.25769274660e+03  0.00000000000e+00 0.0000e+00 -1.0000e+00
       24  2    1    2    0    0 -1.70651426319e+02 +9.56807815890e+01 +1.42323181345e+03  1.43884695945e+03  8.00940488398e+01 0.0000e+00 0.0000e+00
        4  1    3    3  504    0 -1.04731108314e+02 +9.09297016633e+01 +7.80654616751e+02  7.92879843575e+02  0.00000000000e+00 0.0000e+00 -1.0000e+00
       -3  1    3    3    0  504 -6.59203180052e+01 +4.75107992569e+00 +6.42577196695e+02  6.45967115880e+02  0.00000000000e+00 0.0000e+00 1.0000e+00
       24  2    1    2    0    0 -1.02945080729e+01 +8.83124850415e+01 +6.09932894989e+01  1.33979785726e+02  7.95319414362e+01 0.0000e+00 0.0000e+00
       14  1    6    6    0    0 +2.04136380649e+01 +5.58071777874e+01 +6.62029668979e+01  8.89606122828e+01  0.00000000000e+00 0.0000e+00 -1.0000e+00
      -13  1    6    6    0    0 -3.07081461378e+01 +3.25053072541e+01 -5.20967739904e+00  4.50191734431e+01  0.00000000000e+00 0.0000e+00 1.0000e+00
       21  1    1    2  503  501 -9.40084360854e+01 +1.90100060198e+01 -4.96854591588e+02  5.06027125326e+02  0.00000000000e+00 0.0000e+00 -1.0000e+00
        1  1    1    2  501    0 +3.81106439102e+00 -9.96028409144e+01 +6.40770430497e+02  6.48476672463e+02  0.00000000000e+00 0.0000e+00 -1.0000e+00
        1  1    1    2  502    0 +2.71143306086e+02 -1.03400431736e+02 -6.78366768953e+02  7.37829123130e+02  0.00000000000e+00 0.0000e+00 -1.0000e+00
#  0.1300000e+05  0.1300000e+05  0.9606351e+02  0.1300000e+05  0.1300000e+05
<mgrwt>
<rscale>  2 0.24619194e+03</rscale>
<asrwt>  1 0.96063508e+02</asrwt>
<pdfrwt beam="1">  1        2 0.33961030e+00 0.31209926e+03</pdfrwt>
<pdfrwt beam="2">  2        2        2 0.19349119e+00 0.11593296e+00 0.96063508e+02 0.31209926e+03</pdfrwt>
<totfact> 0.22789573e-02</totfact>
</mgrwt>
<clustering>
<clus scale="   96.064">  2  5  1 -1</clus>
<clus scale="   99.541">  3  6 -1 -1</clus>
<clus scale="  120.842">  2  4  1 -1</clus>
<clus scale="  168.535">  2  7  1 -1</clus>
<clus scale="  312.099">  1  3  2 -1</clus>
</clustering>
<rwgt>
  <wgt id="1">5.24461e-06</wgt>
  <wgt id="2">3.48698e-06</wgt>
  <wgt id="3">2.49071e-06</wgt>
  <wgt id="4">4.2491e-06</wgt>
  <wgt id="5">2.8251e-06</wgt>
  <wgt id="6">2.01794e-06</wgt>
  <wgt id="7">3.55852e-06</wgt>
  <wgt id="8">2.36596e-06</wgt>
  <wgt id="9">1.68998e-06</wgt>
  <wgt id="10">3.5877e-06</wgt>
  <wgt id="11">2.8251e-06</wgt>
  <wgt id="12">2.33407e-06</wgt>
  <wgt id="13">2.8251e-06</wgt>
  <wgt id="14">2.82832e-06</wgt>
  <wgt id="15">2.82246e-06</wgt>
  <wgt id="16">2.80255e-06</wgt>
  <wgt id="17">2.85035e-06</wgt>
  <wgt id="18">2.80969e-06</wgt>
  <wgt id="19">2.84804e-06</wgt>
  <wgt id="20">2.8193e-06</wgt>
  <wgt id="21">2.82895e-06</wgt>
  <wgt id="22">2.83467e-06</wgt>
  <wgt id="23">2.81145e-06</wgt>
  <wgt id="24">2.87668e-06</wgt>
  <wgt id="25">2.79341e-06</wgt>
  <wgt id="26">2.82614e-06</wgt>
  <wgt id="27">2.82374e-06</wgt>
  <wgt id="28">2.87192e-06</wgt>
  <wgt id="29">2.80807e-06</wgt>
  <wgt id="30">2.83056e-06</wgt>
  <wgt id="31">2.81838e-06</wgt>
  <wgt id="32">2.82237e-06</wgt>
  <wgt id="33">2.82771e-06</wgt>
  <wgt id="34">2.77944e-06</wgt>
  <wgt id="35">2.90976e-06</wgt>
  <wgt id="36">2.84444e-06</wgt>
  <wgt id="37">2.81487e-06</wgt>
  <wgt id="38">2.81494e-06</wgt>
  <wgt id="39">2.83094e-06</wgt>
  <wgt id="40">2.83458e-06</wgt>
  <wgt id="41">2.81569e-06</wgt>
  <wgt id="42">2.84969e-06</wgt>
  <wgt id="43">2.78696e-06</wgt>
  <wgt id="44">2.83121e-06</wgt>
  <wgt id="45">2.82298e-06</wgt>
  <wgt id="46">2.82252e-06</wgt>
  <wgt id="47">2.82662e-06</wgt>
  <wgt id="48">2.83543e-06</wgt>
  <wgt id="49">2.82699e-06</wgt>
  <wgt id="50">2.81874e-06</wgt>
  <wgt id="51">2.83666e-06</wgt>
  <wgt id="52">2.84484e-06</wgt>
  <wgt id="53">2.82041e-06</wgt>
</rwgt>
</event>
<event>
 10      0 +2.8251000e-06 2.27617600e+02 7.54677100e-03 1.08368900e-01
        2 -1    0    0  501    0 +0.00000000000e+00 +0.00000000000e+00 +7.15971501870e+01  7.15971501870e+01  0.00000000000e+00 0.0000e+00 -1.0000e+00
        2 -1    0    0  502    0 +0.00000000000e+00 +0.00000000000e+00 -1.26461943830e+03  1.26461943830e+03  0.00000000000e+00 0.0000e+00 -1.0000e+00
       24  2    1    2    0    0 +3.60973546148e+01 -9.03583445448e+01 -8.41373613971e+02  8.50853366763e+02  8.10817119112e+01 0.0000e+00 0.0000e+00
        2  1    3    3  503    0 +2.89077059091e+01 -7.97262081746e+01 -3.81992003575e+02  3.91292492295e+02  0.00000000000e+00 0.0000e+00 -1.0000e+00
       -1  1    3    3    0  503 +7.18964870573e+00 -1.06321363702e+01 -4.59381610396e+02  4.59560874469e+02  0.00000000000e+00 0.0000e+00 1.0000e+00
       24  2    1    2    0    0 +5.79229082160e+01 -1.72608772258e+01 -1.22235277705e+02  1.58341840227e+02  8.04839988573e+01 0.0000e+00 0.0000e+00
        2  1    6    6  504    0 +5.73294566264e+01 +1.78414740502e+00 -3.11202818075e+01  6.52558175094e+01  0.00000000000e+00 0.0000e+00 -1.0000e+00
       -1  1    6    6    0  504 +5.93451589587e-01 -1.90450246308e+01 -9.11149958978e+01  9.30860227179e+01  0.00000000000e+00 0.0000e+00 1.0000e+00
        1  1    1    2  501    0 +5.31815018255e+00 -4.77512416293e+01 -5.71952898632e+01  7.46978244733e+01  0.00000000000e+00 0.0000e+00 -1.0000e+00
        1  1    1    2  502    0 -9.93384130134e+01 +1.55370463400e+02 -1.72218106573e+02  2.52323557023e+02  0.00000000000e+00 0.0000e+00 -1.0000e+00
#  0.1300000e+05  0.1300000e+05  0.1300000e+05  0.1300000e+05
<mgrwt>
<rscale>  2 0.18558205e+03</rscale>
<asrwt>0</asrwt>
<pdfrwt beam="1">  1        2 0.11014946e-01 0.10058343e+03</pdfrwt>
<pdfrwt beam="2">  1        2 0.19455684e+00 0.22761758e+03</pdfrwt>
<totfact> 0.18806485e+01</totfact>
</mgrwt>
<clustering>
<clus scale="   48.114">  3  5 -1 -1</clus>
<clus scale="  100.583">  1  4  2 -1</clus>
<clus scale="  153.223">  1  6  2 -1</clus>
<clus scale="  227.618">  1  3  2 -1</clus>
</clustering>
<rwgt>
  <wgt id="1">4.26605e-06</wgt>
  <wgt id="2">2.78406e-06</wgt>
  <wgt id="3">1.96403e-06</wgt>
  <wgt id="4">4.32893e-06</wgt>
  <wgt id="5">2.8251e-06</wgt>
  <wgt id="6">1.99298e-06</wgt>
  <wgt id="7">4.28014e-06</wgt>
  <wgt id="8">2.79326e-06</wgt>
  <wgt id="9">1.97052e-06</wgt>
  <wgt id="10">2.8251e-06</wgt>
  <wgt id="11">2.8251e-06</wgt>
  <wgt id="12">2.8251e-06</wgt>
  <wgt id="13">2.8251e-06</wgt>
  <wgt id="14">2.82846e-06</wgt>
  <wgt id="15">2.82231e-06</wgt>
  <wgt id="16">2.82595e-06</wgt>
  <wgt id="17">2.82398e-06</wgt>
  <wgt id="18">2.81543e-06</wgt>
  <wgt id="19">2.8394e-06</wgt>
  <wgt id="20">2.82177e-06</wgt>
  <wgt id="21">2.82731e-06</wgt>
  <wgt id="22">2.82971e-06</wgt>
  <wgt id="23">2.81844e-06</wgt>
  <wgt id="24">2.85028e-06</wgt>
  <wgt id="25">2.80948e-06</wgt>
  <wgt id="26">2.82676e-06</wgt>
  <wgt id="27">2.82279e-06</wgt>
  <wgt id="28">2.84789e-06</wgt>
  <wgt id="29">2.81669e-06</wgt>
  <wgt id="30">2.83709e-06</wgt>
  <wgt id="31">2.8076e-06</wgt>
  <wgt id="32">2.82792e-06</wgt>
  <wgt id="33">2.82239e-06</wgt>
  <wgt id="34">2.79135e-06</wgt>
  <wgt id="35">2.88576e-06</wgt>
  <wgt id="36">2.83759e-06</wgt>
  <wgt id="37">2.81706e-06</wgt>
  <wgt id="38">2.81954e-06</wgt>
  <wgt id="39">2.8278e-06</wgt>
  <wgt id="40">2.82797e-06</wgt>
  <wgt id="41">2.82367e-06</wgt>
  <wgt id="42">2.83838e-06</wgt>
  <wgt id="43">2.79886e-06</wgt>
  <wgt id="44">2.83019e-06</wgt>
  <wgt id="45">2.82323e-06</wgt>
  <wgt id="46">2.81927e-06</wgt>
  <wgt id="47">2.82894e-06</wgt>
  <wgt id="48">2.81334e-06</wgt>
  <wgt id="49">2.8323e-06</wgt>
  <wgt id="50">2.81075e-06</wgt>
  <wgt id="51">2.83021e-06</wgt>
  <wgt id="52">2.83175e-06</wgt>
  <wgt id="53">2.82334e-06</wgt>
</rwgt>
</event>
<event>
 11      0 +2.8251000e-06 2.25654700e+02 7.54677100e-03 1.07360900e-01
       21 -1    0    0  501  503 +0.00000000000e+00 +0.00000000000e+00 +1.22450405800e+02  1.22450405800e+02  0.00000000000e+00 0.0000e+00 1.0000e+00
        2 -1    0    0  502    0 +0.00000000000e+00 +0.00000000000e+00 -9.85098211010e+02  9.85098211010e+02  0.00000000000e+00 0.0000e+00 -1.0000e+00
       24  2    1    2    0    0 -3.42053613414e+01 -8.71185802381e+01 -6.51625132436e+01  1.40039918278e+02  8.12734385378e+01 0.0000e+00 0.0000e+00
       12  1    3    3    0    0 -4.98835087849e+01 -9.41842236077e+01 -5.41973276231e+01  1.19567481979e+02  0.00000000000e+00 0.0000e+00 -1.0000e+00
      -11  1    3    3    0    0 +1.56781474436e+01 +7.06564336957e+00 -1.09651856205e+01  2.04724362987e+01  0.00000000000e+00 0.0000e+00 1.0000e+00
       24  2    1    2    0    0 +3.68195542719e+01 +4.03497635138e+00 -4.99199078488e+01  9.99308244010e+01  7.82445643793e+01 0.0000e+00 0.0000e+00
       16  1    6    6    0    0 +4.66717234483e+01 -8.00342552619e+00 +3.02991036469e-01  4.73539480229e+01  0.00000000000e+00 0.0000e+00 -1.0000e+00
      -15  1    6    6    0    0 -9.85216917638e+00 +1.20384018776e+01 -5.02228988852e+01  5.25768763781e+01  1.77700000000e+00 0.0000e+00 1.0000e+00
        1  1    1    2  501    0 +7.94734503693e+01 +9.27239342927e+00 -4.21810808136e+02  4.29332463778e+02  0.00000000000e+00 0.0000e+00 -1.0000e+00
        1  1    1    2  502    0 -3.61327923350e+01 +8.34832004958e+01 -3.65544673925e+02  3.76693419218e+02  0.00000000000e+00 0.0000e+00 -1.0000e+00
       -2  1    1    2    0  503 -4.59548509649e+01 -9.67199003841e+00 +3.97900979429e+01  6.15519911361e+01  0.00000000000e+00 0.0000e+00 1.0000e+00
#  0.1300000e+05  0.1300000e+05  0.1300000e+05  0.1300000e+05  0.4696164e+02
<mgrwt>
<rscale>  2 0.19864919e+03</rscale>
<asrwt>  1 0.46961641e+02</asrwt>
<pdfrwt beam="1">  2       21        2 0.18838524e-01 0.10834897e-01 0.46961641e+02 0.22565465e+03</pdfrwt>
<pdfrwt beam="2">  1        2 0.15155357e+00 0.22565465e+03</pdfrwt>
<totfact> 0.16630836e+01</totfact>
</mgrwt>
<clustering>
<clus scale="   46.962">  1  7  2 -1</clus>
<clus scale="   76.854">  4  5 -1 -1</clus>
<clus scale="  135.523">  1  3  2 -1</clus>
<clus scale="   83.854">  1  6  2 -1</clus>
<clus scale="  225.655">  1  3  2 -1</clus>
</clustering>
<rwgt>
  <wgt id="1">4.24655e-06</wgt>
  <wgt id="2">2.78414e-06</wgt>
  <wgt id="3">1.97015e-06</wgt>
  <wgt id="4">4.30903e-06</wgt>
  <wgt id="5">2.8251e-06</wgt>
  <wgt id="6">1.99914e-06</wgt>
  <wgt id="7">4.28688e-06</wgt>
  <wgt id="8">2.81058e-06</wgt>
  <wgt id="9">1.98886e-06</wgt>
  <wgt id="10">3.71918e-06</wgt>
  <wgt id="11">2.8251e-06</wgt>
  <wgt id="12">2.28318e-06</wgt>
  <wgt id="13">2.8251e-06</wgt>
  <wgt id="14">2.83147e-06</wgt>
  <wgt id="15">2.81985e-06</wgt>
  <wgt id="16">2.81996e-06</wgt>
  <wgt id="17">2.83084e-06</wgt>
  <wgt id="18">2.82029e-06</wgt>
  <wgt id="19">2.83217e-06</wgt>
  <wgt id="20">2.82026e-06</wgt>
  <wgt id="21">2.82828e-06</wgt>
  <wgt id="22">2.82613e-06</wgt>
  <wgt id="23">2.82356e-06</wgt>
  <wgt id="24">2.83012e-06</wgt>
  <wgt id="25">2.82184e-06</wgt>
  <wgt id="26">2.82941e-06</wgt>
  <wgt id="27">2.81922e-06</wgt>
  <wgt id="28">2.8466e-06</wgt>
  <wgt id="29">2.81726e-06</wgt>
  <wgt id="30">2.83837e-06</wgt>
  <wgt id="31">2.80611e-06</wgt>
  <wgt id="32">2.82254e-06</wgt>
  <wgt id="33">2.82748e-06</wgt>
  <wgt id="34">2.80424e-06</wgt>
  <wgt id="35">2.86264e-06</wgt>
  <wgt id="36">2.845e-06</wgt>
  <wgt id="37">2.81355e-06</wgt>
  <wgt id="38">2.82179e-06</wgt>
  <wgt id="39">2.82667e-06</wgt>
  <wgt id="40">2.82507e-06</wgt>
  <wgt id="41">2.8262e-06</wgt>
  <wgt id="42">2.82636e-06</wgt>
  <wgt id="43">2.82426e-06</wgt>
  <wgt id="44">2.82973e-06</wgt>
  <wgt id="45">2.82335e-06</wgt>
  <wgt id="46">2.82836e-06</wgt>
  <wgt id="47">2.8232e-06</wgt>
  <wgt id="48">2.81633e-06</wgt>
  <wgt id="49">2.83121e-06</wgt>
  <wgt id="50">2.82918e-06</wgt>
  <wgt id="51">2.80623e-06</wgt>
  <wgt id="52">2.82796e-06</wgt>
  <wgt id="53">2.82439e-06</wgt>
</rwgt>
</event>
<event>
 12      0 +2.8251000e-06 2.92749300e+02 7.54677100e-03 1.03174800e-01
        2 -1    0    0  504    0 +0.00000000000e+00 +0.00000000000e+00 +3.14682276290e+03  3.14682276290e+03  0.00000000000e+00 0.0000e+00 -1.0000e+00
        2 -1    0    0  503    0 +0.00000000000e+00 +0.00000000000e+00 -6.19137070470e+02  6.19137070470e+02  0.00000000000e+00 0.0000e+00 -1.0000e+00
       24  2    1    2    0    0 -8.00506270266e+01 +1.63177215430e+02 +2.02548248549e+03  2.03519154390e+03  7.99400701496e+01 0.0000e+00 0.0000e+00
        2  1    3    3  505    0 -4.02394153593e+01 +1.45175658140e+02 +1.72244228879e+03  1.72901781960e+03  0.00000000000e+00 0.0000e+00 -1.0000e+00
       -1  1    3    3    0  505 -3.98112116673e+01 +1.80015572893e+01 +3.03040196702e+02  3.06173724308e+02  0.00000000000e+00 0.0000e+00 1.0000e+00
       24  2    1    2    0    0 +1.79326208220e+01 +1.85433441957e+02 -3.46126411405e+02  4.01199653691e+02  8.03151863895e+01 0.0000e+00 0.0000e+00
       12  1    6    6    0    0 +4.30050259949e+01 +1.61899350389e+02 -3.00888256070e+02  3.44375630029e+02  0.00000000000e+00 0.0000e+00 -1.0000e+00
      -11  1    6    6    0    0 -2.50724051729e+01 +2.35340915681e+01 -4.52381553342e+01  5.68240236619e+01  0.00000000000e+00 0.0000e+00 1.0000e+00
       21  1    1    2  503  501 -6.10465450905e+01 -2.27878786201e+02 +1.40125840842e+02  2.74391459670e+02  0.00000000000e+00 0.0000e+00 -1.0000e+00
       21  1    1    2  504  502 -5.61171388209e+01 +9.77990412275e+01 +5.06848198957e+02  5.19238752907e+02  0.00000000000e+00 0.0000e+00 -1.0000e+00
        1  1    1    2  501    0 -2.67087691858e+01 -2.43237098976e+02 +2.18111527344e+02  3.27796099779e+02  0.00000000000e+00 0.0000e+00 -1.0000e+00
        1  1    1    2  502    0 +2.05990459302e+02 +2.47061865632e+01 -1.67559488024e+01  2.08142323419e+02  0.00000000000e+00 0.0000e+00 -1.0000e+00
#  0.1300000e+05  0.1300000e+05  0.6691751e+02  0.1127554e+03  0.1300000e+05  0.1300000e+05
<mgrwt>
<rscale>  2 0.26740841e+03</rscale>
<asrwt>  2 0.66917515e+02 0.11275542e+03</asrwt>
<pdfrwt beam="1">  2        2        2 0.48412658e+00 0.40035249e+00 0.11275542e+03 0.29274933e+03</pdfrwt>
<pdfrwt beam="2">  1        2 0.95251857e-01 0.20380391e+03</pdfrwt>
<totfact> 0.20122280e-03</totfact>
</mgrwt>
<clustering>
<clus scale="   66.918">  5  7 -1 -1</clus>
<clus scale="  112.755">  1  6  2 -1</clus>
<clus scale="  203.804">  2  4  1 -1</clus>
<clus scale="  240.555">  2  8  1 -1</clus>
<clus scale="  289.620">  2  5  1 -1</clus>
<clus scale="  292.749">  1  3  2 -1</clus>
</clustering>
<rwgt>
  <wgt id="1">5.32196e-06</wgt>
  <wgt id="2">3.5564e-06</wgt>
  <wgt id="3">2.54911e-06</wgt>
  <wgt id="4">4.2276e-06</wgt>
  <wgt id="5">2.8251e-06</wgt>
  <wgt id="6">2.02493e-06</wgt>
  <wgt id="7">3.49726e-06</wgt>
  <wgt id="8">2.33705e-06</wgt>
  <wgt id="9">1.67511e-06</wgt>
  <wgt id="10">4.60133e-06</wgt>
  <wgt id="11">2.8251e-06</wgt>
  <wgt id="12">1.91601e-06</wgt>
  <wgt id="13">2.8251e-06</wgt>
  <wgt id="14">2.82832e-06</wgt>
  <wgt id="15">2.82231e-06</wgt>
  <wgt id="16">2.80688e-06</wgt>
  <wgt id="17">2.84525e-06</wgt>
  <wgt id="18">2.8091e-06</wgt>
  <wgt id="19">2.84895e-06</wgt>
  <wgt id="20">2.81424e-06</wgt>
  <wgt id="21">2.83234e-06</wgt>
  <wgt id="22">2.83428e-06</wgt>
  <wgt id="23">2.81196e-06</wgt>
  <wgt id="24">2.8757e-06</wgt>
  <wgt id="25">2.79402e-06</wgt>
  <wgt id="26">2.82421e-06</wgt>
  <wgt id="27">2.82627e-06</wgt>
  <wgt id="28">2.84718e-06</wgt>
  <wgt id="29">2.81685e-06</wgt>
  <wgt id="30">2.82673e-06</wgt>
  <wgt id="31">2.82312e-06</wgt>
  <wgt id="32">2.81733e-06</wgt>
  <wgt id="33">2.83251e-06</wgt>
  <wgt id="34">2.78594e-06</wgt>
  <wgt id="35">2.89747e-06</wgt>
  <wgt id="36">2.85151e-06</wgt>
  <wgt id="37">2.81129e-06</wgt>
  <wgt id="38">2.81389e-06</wgt>
  <wgt id="39">2.83091e-06</wgt>
  <wgt id="40">2.84207e-06</wgt>
  <wgt id="41">2.80804e-06</wgt>
  <wgt id="42">2.84651e-06</wgt>
  <wgt id="43">2.78991e-06</wgt>
  <wgt id="44">2.83685e-06</wgt>
  <wgt id="45">2.82041e-06</wgt>
  <wgt id="46">2.8259e-06</wgt>
  <wgt id="47">2.82471e-06</wgt>
  <wgt id="48">2.82109e-06</wgt>
  <wgt id="49">2.83314e-06</wgt>
  <wgt id="50">2.81431e-06</wgt>
  <wgt id="51">2.84107e-06</wgt>
  <wgt id="52">2.83545e-06</wgt>
  <wgt id="53">2.82286e-06</wgt>
</rwgt>
</event>
<event>
 10      0 +2.8251000e-06 3.03035300e+02 7.54677100e-03 1.03273200e-01
       -1 -1    0    0    0  501 +0.00000000000e+00 +0.00000000000e+00 +1.83330161670e+03  1.83330161670e+03  0.00000000000e+00 0.0000e+00 1.0000e+00
        2 -1    0    0  501    0 +0.00000000000e+00 +0.00000000000e+00 -8.74312360600e+02  8.74312360600e+02  0.00000000000e+00 0.0000e+00 -1.0000e+00
       24  2    1    2    0    0 -2.93664271762e+00 -1.46585090072e+02 +2.66715256985e+02  3.15691676508e+02  8.38355163765e+01 0.0000e+00 0.0000e+00
        4  1    3    3  503    0 +3.70231416364e+01 -1.02105912591e+02 +1.60322114800e+02  1.93647904447e+02  0.00000000000e+00 0.0000e+00 -1.0000e+00
       -3  1    3    3    0  503 -3.99597843540e+01 -4.44791774811e+01 +1.06393142185e+02  1.22043772061e+02  0.00000000000e+00 0.0000e+00 1.0000e+00
       24  2    1    2    0    0 +3.39751754275e+01 -2.57306443350e+02 +6.07708132076e+00  2.71271573078e+02  7.86792037852e+01 0.0000e+00 0.0000e+00
        4  1    6    6  504    0 +4.04431705242e+01 -2.24521177827e+02 -1.98204680902e+01  2.28994018023e+02  0.00000000000e+00 0.0000e+00 -1.0000e+00
       -3  1    6    6    0  504 -6.46799509668e+00 -3.27852655228e+01 +2.58975494110e+01  4.22775550555e+01  0.00000000000e+00 0.0000e+00 1.0000e+00
        1  1    1    2  502    0 -3.28941212405e+02 +3.89740780188e+02 -6.07401282083e+02  7.93118222232e+02  0.00000000000e+00 0.0000e+00 -1.0000e+00
       -2  1    1    2    0  502 +2.97902679695e+02 +1.41507532336e+01 +1.29359819988e+03  1.32753250548e+03  0.00000000000e+00 0.0000e+00 1.0000e+00
#  0.1300000e+05  0.1300000e+05  0.1300000e+05  0.1300000e+05
<mgrwt>
<rscale>  2 0.26547186e+03</rscale>
<asrwt>0</asrwt>
<pdfrwt beam="1">  1        2 0.13450959e+00 0.28397815e+03</pdfrwt>
<pdfrwt beam="2">  1       -1 0.28204640e+00 0.16725762e+03</pdfrwt>
<totfact> 0.13771068e-02</totfact>
</mgrwt>
<clustering>
<clus scale="  167.258">  1  3  2 -1</clus>
<clus scale="  283.978">  2  4  1 -1</clus>
<clus scale="  323.371">  2  5  1 -1</clus>
<clus scale="  323.371">  2  3  1 -1</clus>
</clustering>
<rwgt>
  <wgt id="1">5.62528e-06</wgt>
  <wgt id="2">3.75743e-06</wgt>
  <wgt id="3">2.69239e-06</wgt>
  <wgt id="4">4.22947e-06</wgt>
  <wgt id="5">2.8251e-06</wgt>
  <wgt id="6">2.02432e-06</wgt>
  <wgt id="7">3.31736e-06</wgt>
  <wgt id="8">2.21585e-06</wgt>
  <wgt id="9">1.58777e-06</wgt>
  <wgt id="10">2.8251e-06</wgt>
  <wgt id="11">2.8251e-06</wgt>
  <wgt id="12">2.8251e-06</wgt>
  <wgt id="13">2.8251e-06</wgt>
  <wgt id="14">2.83162e-06</wgt>
  <wgt id="15">2.8208e-06</wgt>
  <wgt id="16">2.85172e-06</wgt>
  <wgt id="17">2.79326e-06</wgt>
  <wgt id="18">2.80087e-06</wgt>
  <wgt id="19">2.85811e-06</wgt>
  <wgt id="20">2.76842e-06</wgt>
  <wgt id="21">2.86332e-06</wgt>
  <wgt id="22">2.83058e-06</wgt>
  <wgt id="23">2.81286e-06</wgt>
  <wgt id="24">2.88115e-06</wgt>
  <wgt id="25">2.79208e-06</wgt>
  <wgt id="26">2.81202e-06</wgt>
  <wgt id="27">2.8413e-06</wgt>
  <wgt id="28">2.82754e-06</wgt>
  <wgt id="29">2.82443e-06</wgt>
  <wgt id="30">2.78129e-06</wgt>
  <wgt id="31">2.87903e-06</wgt>
  <wgt id="32">2.82056e-06</wgt>
  <wgt id="33">2.82724e-06</wgt>
  <wgt id="34">2.92125e-06</wgt>
  <wgt id="35">2.66198e-06</wgt>
  <wgt id="36">3.06556e-06</wgt>
  <wgt id="37">2.64573e-06</wgt>
  <wgt id="38">2.88331e-06</wgt>
  <wgt id="39">2.7934e-06</wgt>
  <wgt id="40">2.81533e-06</wgt>
  <wgt id="41">2.83868e-06</wgt>
  <wgt id="42">2.8423e-06</wgt>
  <wgt id="43">2.77788e-06</wgt>
  <wgt id="44">3.05901e-06</wgt>
  <wgt id="45">2.72318e-06</wgt>
  <wgt id="46">2.99533e-06</wgt>
  <wgt id="47">2.70477e-06</wgt>
  <wgt id="48">3.01097e-06</wgt>
  <wgt id="49">2.692e-06</wgt>
  <wgt id="50">2.81422e-06</wgt>
  <wgt id="51">2.85825e-06</wgt>
  <wgt id="52">2.8332e-06</wgt>
  <wgt id="53">2.81859e-06</wgt>
</rwgt>
</event>
<event>
 11      0 +2.8251000e-06 3.28513400e+02 7.54677100e-03 1.04666200e-01
        2 -1    0    0  502    0 +0.00000000000e+00 +0.00000000000e+00 +7.50094891240e+02  7.50094891240e+02  0.00000000000e+00 0.0000e+00 -1.0000e+00
        2 -1    0    0  503    0 +0.00000000000e+00 +0.00000000000e+00 -1.25715175720e+03  1.25715175720e+03  0.00000000000e+00 0.0000e+00 -1.0000e+00
       24  2    1    2    0    0 +1.31719885103e+01 +4.56676756781e+01 +4.03892987787e+02  4.14742901197e+02  8.13823729480e+01 0.0000e+00 0.0000e+00
        4  1    3    3  504    0 -2.38686419850e+01 +5.14424724320e+01 +2.41009690693e+02  2.47591823467e+02  0.00000000000e+00 0.0000e+00 -1.0000e+00
       -3  1    3    3    0  504 +3.70406304952e+01 -5.77479675387e+00 +1.62883297094e+02  1.67151077730e+02  0.00000000000e+00 0.0000e+00 1.0000e+00
       24  2    1    2    0    0 +4.09549007908e+02 +2.41880769602e+01 -6.22609279263e+01  4.21327327491e+02  7.29715067611e+01 0.0000e+00 0.0000e+00
       16  1    6    6    0    0 +2.86387386643e+02 +4.57839840837e+01 -6.05379512182e+01  2.96274791308e+02  0.00000000000e+00 0.0000e+00 -1.0000e+00
      -15  1    6    6    0    0 +1.23161621265e+02 -2.15959071235e+01 -1.72297670815e+00  1.25052536183e+02  1.77700000000e+00 0.0000e+00 1.0000e+00
       21  1    1    2  503  501 +5.19633308079e+01 +1.62429658870e+02 -3.95180536871e+02  4.30408223145e+02  0.00000000000e+00 0.0000e+00 -1.0000e+00
        1  1    1    2  501    0 -2.18957594649e+02 -7.31679128436e+01 -3.55787414550e+02  4.24123397228e+02  0.00000000000e+00 0.0000e+00 -1.0000e+00
        1  1    1    2  502    0 -2.55726732577e+02 -1.59117498665e+02 -9.77209744007e+01  3.16644799379e+02  0.00000000000e+00 0.0000e+00 -1.0000e+00
#  0.1300000e+05  0.1300000e+05  0.1730166e+03  0.1300000e+05  0.1300000e+05
<mgrwt>
<rscale>  2 0.23987424e+03</rscale>
<asrwt>  1 0.17301661e+03</asrwt>
<pdfrwt beam="1">  1        2 0.11539921e+00 0.93384553e+02</pdfrwt>
<pdfrwt beam="2">  2        2        2 0.19340796e+00 0.11769694e+00 0.17301661e+03 0.32851343e+03</pdfrwt>
<totfact> 0.14324491e-01</totfact>
</mgrwt>
<clustering>
<clus scale="   93.385">  1  3  2 -1</clus>
<clus scale="  173.017">  2  5  1 -1</clus>
<clus scale="  193.795">  1  6  2 -1</clus>
<clus scale="  318.518">  1  7  2 -1</clus>
<clus scale="  328.513">  1  3  2 -1</clus>
</clustering>
<rwgt>
  <wgt id="1">4.79415e-06</wgt>
  <wgt id="2">3.1823e-06</wgt>
  <wgt id="3">2.27057e-06</wgt>
  <wgt id="4">4.25602e-06</wgt>
  <wgt id="5">2.8251e-06</wgt>
  <wgt id="6">2.0157e-06</wgt>
  <wgt id="7">3.88871e-06</wgt>
  <wgt id="8">2.58129e-06</wgt>
  <wgt id="9">1.84174e-06</wgt>
  <wgt id="10">3.50564e-06</wgt>
  <wgt id="11">2.8251e-06</wgt>
  <wgt id="12">2.36897e-06</wgt>
  <wgt id="13">2.8251e-06</wgt>
  <wgt id="14">2.82788e-06</wgt>
  <wgt id="15">2.82271e-06</wgt>
  <wgt id="16">2.81326e-06</wgt>
  <wgt id="17">2.8382e-06</wgt>
  <wgt id="18">2.81154e-06</wgt>
  <wgt id="19">2.84512e-06</wgt>
  <wgt id="20">2.81368e-06</wgt>
  <wgt id="21">2.83268e-06</wgt>
  <wgt id="22">2.83266e-06</wgt>
  <wgt id="23">2.81434e-06</wgt>
  <wgt id="24">2.86699e-06</wgt>
  <wgt id="25">2.79928e-06</wgt>
  <wgt id="26">2.82462e-06</wgt>
  <wgt id="27">2.82563e-06</wgt>
  <wgt id="28">2.87687e-06</wgt>
  <wgt id="29">2.80639e-06</wgt>
  <wgt id="30">2.83093e-06</wgt>
  <wgt id="31">2.81768e-06</wgt>
  <wgt id="32">2.82836e-06</wgt>
  <wgt id="33">2.82195e-06</wgt>
  <wgt id="34">2.78626e-06</wgt>
  <wgt id="35">2.89685e-06</wgt>
  <wgt id="36">2.85105e-06</wgt>
  <wgt id="37">2.81056e-06</wgt>
  <wgt id="38">2.81251e-06</wgt>
  <wgt id="39">2.83136e-06</wgt>
  <wgt id="40">2.82639e-06</wgt>
  <wgt id="41">2.82426e-06</wgt>
  <wgt id="42">2.84944e-06</wgt>
  <wgt id="43">2.78491e-06</wgt>
  <wgt id="44">2.83318e-06</wgt>
  <wgt id="45">2.82206e-06</wgt>
  <wgt id="46">2.82453e-06</wgt>
  <wgt id="47">2.82563e-06</wgt>
  <wgt id="48">2.81574e-06</wgt>
  <wgt id="49">2.83279e-06</wgt>
  <wgt id="50">2.81544e-06</wgt>
  <wgt id="51">2.83875e-06</wgt>
  <wgt id="52">2.83799e-06</wgt>
  <wgt id="53">2.82171e-06</wgt>
</rwgt>
</event>
<event>
 11      0 +2.8251000e-06 5.27355300e+02 7.54677100e-03 9.78554300e-02
        2 -1    0    0  501    0 +0.00000000000e+00 +0.00000000000e+00 +8.39653341130e+02  8.39653341130e+02  0.00000000000e+00 0.0000e+00 -1.0000e+00
       -1 -1    0    0    0  501 +0.00000000000e+00 +0.00000000000e+00 -3.48828749530e+02  3.48828749530e+02  0.00000000000e+00 0.0000e+00 1.0000e+00
       24  2    1    2    0    0 +1.51016275745e+02 +5.51709930297e+01 +1.78018086093e+02  2.53235424656e+02  8.11664173949e+01 0.0000e+00 0.0000e+00
        4  1    3    3  504    0 +9.00109488752e+01 +7.29896182591e+01 +1.04561384870e+02  1.56085036108e+02  0.00000000000e+00 0.0000e+00 -1.0000e+00
       -3  1    3    3    0  504 +6.10053268698e+01 -1.78186252294e+01 +7.34567012233e+01  9.71503885478e+01  0.00000000000e+00 0.0000e+00 1.0000e+00
       24  2    1    2    0    0 -1.63913237095e+02 +1.63267872159e+01 +4.00661047243e+02  4.40718733557e+02  8.10531557365e+01 0.0000e+00 0.0000e+00
       16  1    6    6    0    0 -1.65676571007e+02 +6.96633915490e+00 +3.28992920357e+02  3.68420408918e+02  0.00000000000e+00 0.0000e+00 -1.0000e+00
      -15  1    6    6    0    0 +1.76333391234e+00 +9.36044806097e+00 +7.16681268856e+01  7.22983246395e+01  1.77700000000e+00 0.0000e+00 1.0000e+00
       21  1    1    2  503  502 -6.00860462225e+01 +3.65408447538e+00 -4.92579627031e+01  7.77819527504e+01  0.00000000000e+00 0.0000e+00 1.0000e+00
        1  1    1    2  502    0 +1.58260448890e+02 -1.04877789454e+02 +1.26795282352e+02  2.28304104278e+02  0.00000000000e+00 0.0000e+00 -1.0000e+00
       -2  1    1    2    0  503 -8.52774413176e+01 +2.97259247330e+01 -1.65391861384e+02  1.88441875418e+02  0.00000000000e+00 0.0000e+00 1.0000e+00
#  0.1300000e+05  0.1300000e+05  0.4126830e+02  0.1300000e+05  0.1300000e+05
<mgrwt>
<rscale>  2 0.40499952e+03</rscale>
<asrwt>  1 0.41268295e+02</asrwt>
<pdfrwt beam="1">  1        2 0.12917744e+00 0.18344597e+03</pdfrwt>
<pdfrwt beam="2">  1       -1 0.53665961e-01 0.52735527e+03</pdfrwt>
<totfact> 0.21988956e-01</totfact>
</mgrwt>
<clustering>
<clus scale="   41.268">  5  7 -1 -1</clus>
<clus scale="  157.509">  3  5 -1 -1</clus>
<clus scale="  183.446">  1  4  2 -1</clus>
<clus scale="  132.215">  1  6  2 -1</clus>
<clus scale="  527.355">  1  3  2 -1</clus>
</clustering>
<rwgt>
  <wgt id="1">4.46819e-06</wgt>
  <wgt id="2">3.05831e-06</wgt>
  <wgt id="3">2.22831e-06</wgt>
  <wgt id="4">4.12746e-06</wgt>
  <wgt id="5">2.8251e-06</wgt>
  <wgt id="6">2.05839e-06</wgt>
  <wgt id="7">3.81776e-06</wgt>
  <wgt id="8">2.61312e-06</wgt>
  <wgt id="9">1.90394e-06</wgt>
  <wgt id="10">3.74774e-06</wgt>
  <wgt id="11">2.8251e-06</wgt>
  <wgt id="12">2.27281e-06</wgt>
  <wgt id="13">2.8251e-06</wgt>
  <wgt id="14">2.83013e-06</wgt>
  <wgt id="15">2.82117e-06</wgt>
  <wgt id="16">2.83719e-06</wgt>
  <wgt id="17">2.81178e-06</wgt>
  <wgt id="18">2.81082e-06</wgt>
  <wgt id="19">2.84658e-06</wgt>
  <wgt id="20">2.84028e-06</wgt>
  <wgt id="21">2.81503e-06</wgt>
  <wgt id="22">2.83555e-06</wgt>
  <wgt id="23">2.81053e-06</wgt>
  <wgt id="24">2.88006e-06</wgt>
  <wgt id="25">2.79166e-06</wgt>
  <wgt id="26">2.82551e-06</wgt>
  <wgt id="27">2.82505e-06</wgt>
  <wgt id="28">2.85597e-06</wgt>
  <wgt id="29">2.81422e-06</wgt>
  <wgt id="30">2.8225e-06</wgt>
  <wgt id="31">2.82804e-06</wgt>
  <wgt id="32">2.84092e-06</wgt>
  <wgt id="33">2.81015e-06</wgt>
  <wgt id="34">2.81031e-06</wgt>
  <wgt id="35">2.85237e-06</wgt>
  <wgt id="36">2.84375e-06</wgt>
  <wgt id="37">2.81177e-06</wgt>
  <wgt id="38">2.84408e-06</wgt>
  <wgt id="39">2.81668e-06</wgt>
  <wgt id="40">2.81636e-06</wgt>
  <wgt id="41">2.83475e-06</wgt>
  <wgt id="42">2.84388e-06</wgt>
  <wgt id="43">2.78217e-06</wgt>
  <wgt id="44">2.83559e-06</wgt>
  <wgt id="45">2.82145e-06</wgt>
  <wgt id="46">2.82345e-06</wgt>
  <wgt id="47">2.82746e-06</wgt>
  <wgt id="48">2.81886e-06</wgt>
  <wgt id="49">2.82942e-06</wgt>
  <wgt id="50">2.82938e-06</wgt>
  <wgt id="51">2.82474e-06</wgt>
  <wgt id="52">2.82801e-06</wgt>
  <wgt id="53">2.82436e-06</wgt>
</rwgt>
</event>
<event>
 12      0 +2.8251000e-06 1.74421900e+02 7.54677100e-03 1.09632900e-01
        2 -1    0    0  504    0 +0.00000000000e+00 +0.00000000000e+00 +6.51253906380e+02  6.51253906380e+02  0.00000000000e+00 0.0000e+00 -1.0000e+00
        2 -1    0    0  503    0 +0.00000000000e+00 +0.00000000000e+00 -7.65241611280e+02  7.65241611280e+02  0.00000000000e+00 0.0000e+00 -1.0000e+00
       24  2    1    2    0    0 -6.14467891969e+01 +2.12690254222e+01 -1.91477068304e+02  2.17445620587e+02  7.99440484427e+01 0.0000e+00 0.0000e+00
        2  1    3    3  505    0 -5.02167650647e+01 +3.14761288963e+01 -1.93280865813e+02  2.02163209495e+02  0.00000000000e+00 0.0000e+00 -1.0000e+00
       -1  1    3    3    0  505 -1.12300241321e+01 -1.02071034741e+01 +1.80379750939e+00  1.52824110923e+01  0.00000000000e+00 0.0000e+00 1.0000e+00
       24  2    1    2    0    0 +5.65231871267e+01 -4.07439122907e+01 +5.73113397729e+01  1.23011164934e+02  8.36194950964e+01 0.0000e+00 0.0000e+00
        4  1    6    6  506    0 +4.36578125090e+01 -4.81767487090e+01 +1.26387880911e+00  6.50276948606e+01  0.00000000000e+00 0.0000e+00 -1.0000e+00
       -3  1    6    6    0  506 +1.28653746177e+01 +7.43283641835e+00 +5.60474609638e+01  5.79834700735e+01  0.00000000000e+00 0.0000e+00 1.0000e+00
       21  1    1    2  503  501 +6.30440565633e+01 -1.41209964008e+02 +1.34008454455e+01  1.55223676228e+02  0.00000000000e+00 0.0000e+00 1.0000e+00
       21  1    1    2  504  502 +4.07707554698e+01 +6.34817946735e+00 +3.69703933529e+02  3.71999398321e+02  0.00000000000e+00 0.0000e+00 -1.0000e+00
        1  1    1    2  501    0 +5.16769595024e+01 -3.63395568821e+01 +4.25172487427e+01  7.61497733316e+01  0.00000000000e+00 0.0000e+00 -1.0000e+00
        1  1    1    2  502    0 -1.50568169465e+02 +1.90676228291e+02 -4.05444004086e+02  4.72665884258e+02  0.00000000000e+00 0.0000e+00 -1.0000e+00
#  0.1300000e+05  0.1300000e+05  0.5003091e+02  0.4126202e+02  0.1300000e+05  0.1300000e+05
<mgrwt>
<rscale>  2 0.17072819e+03</rscale>
<asrwt>  2 0.41262015e+02 0.50030909e+02</asrwt>
<pdfrwt beam="1">  2        2        2 0.10019291e+00 0.42988534e-01 0.41262015e+02 0.17442194e+03</pdfrwt>
<pdfrwt beam="2">  1        2 0.11772948e+00 0.10263927e+03</pdfrwt>
<totfact> 0.67017506e-02</totfact>
</mgrwt>
<clustering>
<clus scale="   41.262">  1  6  2 -1</clus>
<clus scale="   50.031">  5  7 -1 -1</clus>
<clus scale="  102.639">  2  3  1 -1</clus>
<clus scale="  111.814">  1  4  2 -1</clus>
<clus scale="  261.359">  2  8  1 -1</clus>
<clus scale="  272.085">  1  3  2 -1</clus>
</clustering>
<rwgt>
  <wgt id="1">4.50994e-06</wgt>
  <wgt id="2">2.92611e-06</wgt>
  <wgt id="3">2.05622e-06</wgt>
  <wgt id="4">4.35426e-06</wgt>
  <wgt id="5">2.8251e-06</wgt>
  <wgt id="6">1.98524e-06</wgt>
  <wgt id="7">4.17085e-06</wgt>
  <wgt id="8">2.7061e-06</wgt>
  <wgt id="9">1.90162e-06</wgt>
  <wgt id="10">4.91578e-06</wgt>
  <wgt id="11">2.8251e-06</wgt>
  <wgt id="12">1.84075e-06</wgt>
  <wgt id="13">2.8251e-06</wgt>
  <wgt id="14">2.82789e-06</wgt>
  <wgt id="15">2.82274e-06</wgt>
  <wgt id="16">2.81954e-06</wgt>
  <wgt id="17">2.83115e-06</wgt>
  <wgt id="18">2.81236e-06</wgt>
  <wgt id="19">2.84386e-06</wgt>
  <wgt id="20">2.80977e-06</wgt>
  <wgt id="21">2.83543e-06</wgt>
  <wgt id="22">2.83151e-06</wgt>
  <wgt id="23">2.81597e-06</wgt>
  <wgt id="24">2.86172e-06</wgt>
  <wgt id="25">2.80245e-06</wgt>
  <wgt id="26">2.82351e-06</wgt>
  <wgt id="27">2.82725e-06</wgt>
  <wgt id="28">2.87305e-06</wgt>
  <wgt id="29">2.80774e-06</wgt>
  <wgt id="30">2.82966e-06</wgt>
  <wgt id="31">2.81917e-06</wgt>
  <wgt id="32">2.82986e-06</wgt>
  <wgt id="33">2.82049e-06</wgt>
  <wgt id="34">2.79091e-06</wgt>
  <wgt id="35">2.88824e-06</wgt>
  <wgt id="36">2.85151e-06</wgt>
  <wgt id="37">2.81149e-06</wgt>
  <wgt id="38">2.81275e-06</wgt>
  <wgt id="39">2.83101e-06</wgt>
  <wgt id="40">2.82475e-06</wgt>
  <wgt id="41">2.82593e-06</wgt>
  <wgt id="42">2.8477e-06</wgt>
  <wgt id="43">2.78603e-06</wgt>
  <wgt id="44">2.83648e-06</wgt>
  <wgt id="45">2.82063e-06</wgt>
  <wgt id="46">2.82697e-06</wgt>
  <wgt id="47">2.82435e-06</wgt>
  <wgt id="48">2.80326e-06</wgt>
  <wgt id="49">2.83682e-06</wgt>
  <wgt id="50">2.81434e-06</wgt>
  <wgt id="51">2.84002e-06</wgt>
  <wgt id="52">2.83182e-06</wgt>
  <wgt id="53">2.82315e-06</wgt>
</rwgt>
</event>
<event>
 10      0 +2.8251000e-06 3.04958100e+02 7.54677100e-03 1.05625200e-01
        2 -1    0    0  502    0 +0.00000000000e+00 +0.00000000000e+00 +1.56144473350e+03  1.56144473350e+03  0.00000000000e+00 0.0000e+00 -1.0000e+00
       -1 -1    0    0    0  501 +0.00000000000e+00 +0.00000000000e+00 -2.57065138560e+01  2.57065138560e+01  0.00000000000e+00 0.0000e+00 1.0000e+00
       24  2    1    2    0    0 +2.81994445875e+01 +6.49881085286e+00 +2.87599612529e+02  3.00047410900e+02  8.04827213974e+01 0.0000e+00 0.0000e+00
       14  1    3    3    0    0 +4.12770081875e+01 -8.72408296929e+00 +2.70236640594e+02  2.73510041768e+02  0.00000000000e+00 0.0000e+00 -1.0000e+00
      -13  1    3    3    0    0 -1.30775636001e+01 +1.52228938222e+01 +1.73629719354e+01  2.65373691323e+01  0.00000000000e+00 0.0000e+00 1.0000e+00
       24  2    1    2    0    0 +1.57876075695e+01 -3.37498505626e+01 +4.84060657041e+02  4.92170494877e+02  8.08008376626e+01 0.0000e+00 0.0000e+00
       14  1    6    6    0    0 +9.46964288711e+00 -2.50442466023e+01 +4.79885773634e+02  4.80632129764e+02  0.00000000000e+00 0.0000e+00 -1.0000e+00
      -13  1    6    6    0    0 +6.31796468243e+00 -8.70560396025e+00 +4.17488340668e+00  1.15383651138e+01  0.00000000000e+00 0.0000e+00 1.0000e+00
        3  1    1    2  502    0 -9.08028540283e+01 -5.57480749091e+01 +2.44783572150e+02  2.66968169170e+02  0.00000000000e+00 0.0000e+00 -1.0000e+00
       -4  1    1    2    0  501 +4.68158018713e+01 +8.29991146188e+01 +5.19294377924e+02  5.27965172408e+02  0.00000000000e+00 0.0000e+00 1.0000e+00
#  0.1300000e+05  0.1300000e+05  0.1104294e+03  0.1300000e+05
<mgrwt>
<rscale>  1 0.22406226e+03</rscale>
<asrwt>  1 0.11042937e+03</asrwt>
<pdfrwt beam="1">  1        2 0.24022227e+00 0.30495814e+03</pdfrwt>
<pdfrwt beam="2">  1       -1 0.39548483e-02 0.88869796e+02</pdfrwt>
<totfact> 0.41639639e+01</totfact>
</mgrwt>
<clustering>
<clus scale="   88.870">  2  4  1 -1</clus>
<clus scale="   91.226">  3  6 -1 -1</clus>
<clus scale="  110.429">  3  5 -1 -1</clus>
<clus scale="  304.958">  1  3  2 -1</clus>
</clustering>
<rwgt>
  <wgt id="1">3.20099e-06</wgt>
  <wgt id="2">2.60223e-06</wgt>
  <wgt id="3">2.19484e-06</wgt>
  <wgt id="4">3.47515e-06</wgt>
  <wgt id="5">2.8251e-06</wgt>
  <wgt id="6">2.38282e-06</wgt>
  <wgt id="7">3.59305e-06</wgt>
  <wgt id="8">2.92095e-06</wgt>
  <wgt id="9">2.46366e-06</wgt>
  <wgt id="10">3.56586e-06</wgt>
  <wgt id="11">2.8251e-06</wgt>
  <wgt id="12">2.34249e-06</wgt>
  <wgt id="13">2.8251e-06</wgt>
  <wgt id="14">2.82543e-06</wgt>
  <wgt id="15">2.82486e-06</wgt>
  <wgt id="16">2.82442e-06</wgt>
  <wgt id="17">2.82577e-06</wgt>
  <wgt id="18">2.81589e-06</wgt>
  <wgt id="19">2.83876e-06</wgt>
  <wgt id="20">2.8264e-06</wgt>
  <wgt id="21">2.82423e-06</wgt>
  <wgt id="22">2.82911e-06</wgt>
  <wgt id="23">2.8194e-06</wgt>
  <wgt id="24">2.84547e-06</wgt>
  <wgt id="25">2.8125e-06</wgt>
  <wgt id="26">2.83017e-06</wgt>
  <wgt id="27">2.81828e-06</wgt>
  <wgt id="28">2.84317e-06</wgt>
  <wgt id="29">2.81852e-06</wgt>
  <wgt id="30">2.83213e-06</wgt>
  <wgt id="31">2.80747e-06</wgt>
  <wgt id="32">2.82785e-06</wgt>
  <wgt id="33">2.82246e-06</wgt>
  <wgt id="34">2.78032e-06</wgt>
  <wgt id="35">2.90474e-06</wgt>
  <wgt id="36">2.847e-06</wgt>
  <wgt id="37">2.81221e-06</wgt>
  <wgt id="38">2.82156e-06</wgt>
  <wgt id="39">2.82698e-06</wgt>
  <wgt id="40">2.83215e-06</wgt>
  <wgt id="41">2.82211e-06</wgt>
  <wgt id="42">2.83701e-06</wgt>
  <wgt id="43">2.80388e-06</wgt>
  <wgt id="44">2.82981e-06</wgt>
  <wgt id="45">2.82344e-06</wgt>
  <wgt id="46">2.81732e-06</wgt>
  <wgt id="47">2.83014e-06</wgt>
  <wgt id="48">2.82786e-06</wgt>
  <wgt id="49">2.82653e-06</wgt>
  <wgt id="50">2.81163e-06</wgt>
  <wgt id="51">2.82871e-06</wgt>
  <wgt id="52">2.83675e-06</wgt>
  <wgt id="53">2.82224e-06</wgt>
</rwgt>
</event>
<event>
 10      0 +2.8251000e-06 2.65844400e+02 7.54677100e-03 1.07074700e-01
        2 -1    0    0  501    0 +0.00000000000e+00 +0.00000000000e+00 +2.43606075000e+02  2.43606075000e+02  0.00000000000e+00 0.0000e+00 -1.0000e+00
        2 -1    0    0  502    0 +0.00000000000e+00 +0.00000000000e+00 -1.40664365940e+03  1.40664365940e+03  0.00000000000e+00 0.0000e+00 -1.0000e+00
       24  2    1    2    0    0 +1.89307498581e+02 +7.97631311182e+01 -6.87128896029e+01  2.31395035296e+02  8.13800654777e+01 0.0000e+00 0.0000e+00
        2  1    3    3  503    0 +1.91444317051e+02 +5.94934209205e+01 -6.43629551770e+01  2.10553992275e+02  0.00000000000e+00 0.0000e+00 -1.0000e+00
       -1  1    3    3    0  503 -2.13681846993e+00 +2.02697101977e+01 -4.34993442583e+00  2.08410430205e+01  0.00000000000e+00 0.0000e+00 1.0000e+00
       24  2    1    2    0    0 -2.05520854334e+01 +3.40657350289e+01 -4.79942881060e+02  4.88332739865e+02  8.08754179278e+01 0.0000e+00 0.0000e+00
        2  1    6    6  504    0 -2.57271068558e+01 +5.75370678781e+01 -3.97210591658e+02  4.02179875594e+02  0.00000000000e+00 0.0000e+00 -1.0000e+00
       -1  1    6    6    0  504 +5.17502142244e+00 -2.34713328492e+01 -8.27322894018e+01  8.61528642710e+01  0.00000000000e+00 0.0000e+00 1.0000e+00
        1  1    1    2  501    0 +2.51674234909e+01 +1.66975981532e+02 -5.60065031525e+02  5.84967706075e+02  0.00000000000e+00 0.0000e+00 -1.0000e+00
        1  1    1    2  502    0 -1.93922836639e+02 -2.80804847679e+02 -5.43167822121e+01  3.45554253164e+02  0.00000000000e+00 0.0000e+00 -1.0000e+00
#  0.1300000e+05  0.1300000e+05  0.1300000e+05  0.1300000e+05
<mgrwt>
<rscale>  2 0.20257581e+03</rscale>
<asrwt>0</asrwt>
<pdfrwt beam="1">  1        2 0.37477858e-01 0.26584439e+03</pdfrwt>
<pdfrwt beam="2">  1        2 0.21640672e+00 0.89632986e+02</pdfrwt>
<totfact> 0.41323410e+00</totfact>
</mgrwt>
<clustering>
<clus scale="   89.633">  2  4  1 -1</clus>
<clus scale="  188.810">  2  5  1 -1</clus>
<clus scale="  253.389">  2  6  1 -1</clus>
<clus scale="  265.844">  1  3  2 -1</clus>
</clustering>
<rwgt>
  <wgt id="1">4.74943e-06</wgt>
  <wgt id="2">3.11792e-06</wgt>
  <wgt id="3">2.20828e-06</wgt>
  <wgt id="4">4.30339e-06</wgt>
  <wgt id="5">2.8251e-06</wgt>
  <wgt id="6">2.00089e-06</wgt>
  <wgt id="7">3.92613e-06</wgt>
  <wgt id="8">2.57744e-06</wgt>
  <wgt id="9">1.82548e-06</wgt>
  <wgt id="10">2.8251e-06</wgt>
  <wgt id="11">2.8251e-06</wgt>
  <wgt id="12">2.8251e-06</wgt>
  <wgt id="13">2.8251e-06</wgt>
  <wgt id="14">2.82844e-06</wgt>
  <wgt id="15">2.82232e-06</wgt>
  <wgt id="16">2.82086e-06</wgt>
  <wgt id="17">2.82966e-06</wgt>
  <wgt id="18">2.81306e-06</wgt>
  <wgt id="19">2.8429e-06</wgt>
  <wgt id="20">2.81727e-06</wgt>
  <wgt id="21">2.83034e-06</wgt>
  <wgt id="22">2.83162e-06</wgt>
  <wgt id="23">2.81582e-06</wgt>
  <wgt id="24">2.86116e-06</wgt>
  <wgt id="25">2.80282e-06</wgt>
  <wgt id="26">2.82472e-06</wgt>
  <wgt id="27">2.8256e-06</wgt>
  <wgt id="28">2.86244e-06</wgt>
  <wgt id="29">2.81149e-06</wgt>
  <wgt id="30">2.83159e-06</wgt>
  <wgt id="31">2.81662e-06</wgt>
  <wgt id="32">2.82886e-06</wgt>
  <wgt id="33">2.82147e-06</wgt>
  <wgt id="34">2.79093e-06</wgt>
  <wgt id="35">2.88756e-06</wgt>
  <wgt id="36">2.83308e-06</wgt>
  <wgt id="37">2.82106e-06</wgt>
  <wgt id="38">2.81736e-06</wgt>
  <wgt id="39">2.82901e-06</wgt>
  <wgt id="40">2.82716e-06</wgt>
  <wgt id="41">2.82337e-06</wgt>
  <wgt id="42">2.84523e-06</wgt>
  <wgt id="43">2.78846e-06</wgt>
  <wgt id="44">2.83284e-06</wgt>
  <wgt id="45">2.82218e-06</wgt>
  <wgt id="46">2.82275e-06</wgt>
  <wgt id="47">2.82687e-06</wgt>
  <wgt id="48">2.80524e-06</wgt>
  <wgt id="49">2.83684e-06</wgt>
  <wgt id="50">2.81596e-06</wgt>
  <wgt id="51">2.83454e-06</wgt>
  <wgt id="52">2.8309e-06</wgt>
  <wgt id="53">2.82355e-06</wgt>
</rwgt>
</event>
<event>
 10      0 +2.8251000e-06 1.25073100e+02 7.54677100e-03 1.14627700e-01
        2 -1    0    0  502    0 +0.00000000000e+00 +0.00000000000e+00 +2.01595887420e+02  2.01595887420e+02  0.00000000000e+00 0.0000e+00 -1.0000e+00
        2 -1    0    0  501    0 +0.00000000000e+00 +0.00000000000e+00 -4.83645227960e+02  4.83645227960e+02  0.00000000000e+00 0.0000e+00 -1.0000e+00
       24  2    1    2    0    0 -5.91837099310e+01 -1.60379216002e+01 +2.18318414922e+00  1.00592834135e+02  7.97133962135e+01 0.0000e+00 0.0000e+00
        2  1    3    3  503    0 -1.45082081432e+01 +1.78932289547e+01 -2.85034662561e+01  3.66483742417e+01  0.00000000000e+00 0.0000e+00 -1.0000e+00
       -1  1    3    3    0  503 -4.46755017878e+01 -3.39311505550e+01 +3.06866504053e+01  6.39444598935e+01  0.00000000000e+00 0.0000e+00 1.0000e+00
       24  2    1    2    0    0 +4.39738762356e+01 -4.03379260487e+01 -6.66457325162e+01  1.22130882201e+02  8.31471506158e+01 0.0000e+00 0.0000e+00
        4  1    6    6  504    0 +4.93309929570e+01 -5.79743572983e+01 -6.99783619659e+01  1.03399923180e+02  0.00000000000e+00 0.0000e+00 -1.0000e+00
       -3  1    6    6    0  504 -5.35711672138e+00 +1.76364312497e+01 +3.33262944968e+00  1.87309590208e+01  0.00000000000e+00 0.0000e+00 1.0000e+00
        1  1    1    2  501    0 -1.18320775111e+02 -2.21715511731e+01 +6.75319959365e+01  1.38028815758e+02  0.00000000000e+00 0.0000e+00 -1.0000e+00
        1  1    1    2  502    0 +1.33530608806e+02 +7.85473988220e+01 -2.85118788110e+02  3.24488583286e+02  0.00000000000e+00 0.0000e+00 -1.0000e+00
#  0.1300000e+05  0.1300000e+05  0.1300000e+05  0.1300000e+05
<mgrwt>
<rscale>  2 0.12503619e+03</rscale>
<asrwt>0</asrwt>
<pdfrwt beam="1">  1        2 0.31014752e-01 0.99704529e+02</pdfrwt>
<pdfrwt beam="2">  1        2 0.74406958e-01 0.99822263e+02</pdfrwt>
<totfact> 0.22041957e+01</totfact>
</mgrwt>
<clustering>
<clus scale="   99.822">  2  4  1 -1</clus>
<clus scale="   99.705">  1  3  2 -1</clus>
<clus scale="  156.711">  1  5  2 -1</clus>
<clus scale="  156.711">  1  3  2 -1</clus>
</clustering>
<rwgt>
  <wgt id="1">4.3339e-06</wgt>
  <wgt id="2">2.74726e-06</wgt>
  <wgt id="3">1.90128e-06</wgt>
  <wgt id="4">4.45669e-06</wgt>
  <wgt id="5">2.8251e-06</wgt>
  <wgt id="6">1.95515e-06</wgt>
  <wgt id="7">4.46943e-06</wgt>
  <wgt id="8">2.83318e-06</wgt>
  <wgt id="9">1.96074e-06</wgt>
  <wgt id="10">2.8251e-06</wgt>
  <wgt id="11">2.8251e-06</wgt>
  <wgt id="12">2.8251e-06</wgt>
  <wgt id="13">2.8251e-06</wgt>
  <wgt id="14">2.8285e-06</wgt>
  <wgt id="15">2.82233e-06</wgt>
  <wgt id="16">2.83279e-06</wgt>
  <wgt id="17">2.81633e-06</wgt>
  <wgt id="18">2.81465e-06</wgt>
  <wgt id="19">2.84054e-06</wgt>
  <wgt id="20">2.81462e-06</wgt>
  <wgt id="21">2.83218e-06</wgt>
  <wgt id="22">2.82987e-06</wgt>
  <wgt id="23">2.81833e-06</wgt>
  <wgt id="24">2.85262e-06</wgt>
  <wgt id="25">2.80806e-06</wgt>
  <wgt id="26">2.82341e-06</wgt>
  <wgt id="27">2.82746e-06</wgt>
  <wgt id="28">2.8504e-06</wgt>
  <wgt id="29">2.81579e-06</wgt>
  <wgt id="30">2.83187e-06</wgt>
  <wgt id="31">2.81602e-06</wgt>
  <wgt id="32">2.83116e-06</wgt>
  <wgt id="33">2.81937e-06</wgt>
  <wgt id="34">2.79769e-06</wgt>
  <wgt id="35">2.8746e-06</wgt>
  <wgt id="36">2.82652e-06</wgt>
  <wgt id="37">2.82574e-06</wgt>
  <wgt id="38">2.8198e-06</wgt>
  <wgt id="39">2.82754e-06</wgt>
  <wgt id="40">2.8257e-06</wgt>
  <wgt id="41">2.82515e-06</wgt>
  <wgt id="42">2.84186e-06</wgt>
  <wgt id="43">2.78981e-06</wgt>
  <wgt id="44">2.83629e-06</wgt>
  <wgt id="45">2.82061e-06</wgt>
  <wgt id="46">2.82383e-06</wgt>
  <wgt id="47">2.82658e-06</wgt>
  <wgt id="48">2.78519e-06</wgt>
  <wgt id="49">2.84369e-06</wgt>
  <wgt id="50">2.81227e-06</wgt>
  <wgt id="51">2.83527e-06</wgt>
  <wgt id="52">2.82048e-06</wgt>
  <wgt id="53">2.826e-06</wgt>
</rwgt>
</event>
<event>
 11      0 +2.8251000e-06 7.46447600e+02 7.54677100e-03 9.23319600e-02
        2 -1    0    0  501    0 +0.00000000000e+00 +0.00000000000e+00 +2.81808110910e+03  2.81808110910e+03  0.00000000000e+00 0.0000e+00 -1.0000e+00
        2 -1    0    0  503    0 +0.00000000000e+00 +0.00000000000e+00 -1.77381511280e+02  1.77381511280e+02  0.00000000000e+00 0.0000e+00 -1.0000e+00
       24  2    1    2    0    0 +2.82878454879e+02 -9.81322313688e+01 +5.53897908994e+02  6.34499327750e+02  7.83348470305e+01 0.0000e+00 0.0000e+00
       14  1    3    3    0    0 +9.83306909799e+01 -5.30121450405e+01 +2.77147369743e+02  2.98814117582e+02  0.00000000000e+00 0.0000e+00 -1.0000e+00
      -13  1    3    3    0    0 +1.84547763899e+02 -4.51200863283e+01 +2.76750539251e+02  3.35685210169e+02  0.00000000000e+00 0.0000e+00 1.0000e+00
       24  2    1    2    0    0 -4.44178667139e+02 +2.22085531722e+02 +9.72464133011e+02  1.09372576063e+03  6.27126600644e+01 0.0000e+00 0.0000e+00
        4  1    6    6  504    0 -4.07998266148e+02 +2.16287263177e+02 +9.24028399983e+02  1.03299140818e+03  0.00000000000e+00 0.0000e+00 -1.0000e+00
       -3  1    6    6    0  504 -3.61804009907e+01 +5.79826854453e+00 +4.84357330282e+01  6.07343524535e+01  0.00000000000e+00 0.0000e+00 1.0000e+00
       21  1    1    2  503  502 +4.27588852804e+01 -8.99783514869e+01 +3.59200401797e+00  9.96861499888e+01  0.00000000000e+00 0.0000e+00 1.0000e+00
        1  1    1    2  501    0 +2.33036319572e+02 -6.14608218437e+01 +7.04305295706e+02  7.44398621990e+02  0.00000000000e+00 0.0000e+00 -1.0000e+00
        1  1    1    2  502    0 -1.14494992592e+02 +2.74858729778e+01 +4.06440256091e+02  4.23152760021e+02  0.00000000000e+00 0.0000e+00 -1.0000e+00
#  0.1300000e+05  0.1300000e+05  0.9962141e+02  0.1300000e+05  0.1300000e+05
<mgrwt>
<rscale>  2 0.65615973e+03</rscale>
<asrwt>  1 0.99621413e+02</asrwt>
<pdfrwt beam="1">  1        2 0.43355094e+00 0.44569765e+03</pdfrwt>
<pdfrwt beam="2">  2        2        2 0.27289463e-01 0.19397548e-01 0.99621413e+02 0.74644758e+03</pdfrwt>
<totfact> 0.78257629e-02</totfact>
</mgrwt>
<clustering>
<clus scale="   99.621">  2  5  1 -1</clus>
<clus scale="  100.214">  3  7 -1 -1</clus>
<clus scale="  247.194">  4  6 -1 -1</clus>
<clus scale="  445.698">  1  3  2 -1</clus>
<clus scale="  746.448">  1  3  2 -1</clus>
</clustering>
<rwgt>
  <wgt id="1">4.69241e-06</wgt>
  <wgt id="2">3.29123e-06</wgt>
  <wgt id="3">2.43942e-06</wgt>
  <wgt id="4">4.02784e-06</wgt>
  <wgt id="5">2.8251e-06</wgt>
  <wgt id="6">2.09393e-06</wgt>
  <wgt id="7">3.51091e-06</wgt>
  <wgt id="8">2.46253e-06</wgt>
  <wgt id="9">1.8252e-06</wgt>
  <wgt id="10">3.58193e-06</wgt>
  <wgt id="11">2.8251e-06</wgt>
  <wgt id="12">2.33632e-06</wgt>
  <wgt id="13">2.8251e-06</wgt>
  <wgt id="14">2.82913e-06</wgt>
  <wgt id="15">2.82173e-06</wgt>
  <wgt id="16">2.81529e-06</wgt>
  <wgt id="17">2.83573e-06</wgt>
  <wgt id="18">2.81157e-06</wgt>
  <wgt id="19">2.8451e-06</wgt>
  <wgt id="20">2.81928e-06</wgt>
  <wgt id="21">2.8288e-06</wgt>
  <wgt id="22">2.83267e-06</wgt>
  <wgt id="23">2.81429e-06</wgt>
  <wgt id="24">2.86623e-06</wgt>
  <wgt id="25">2.79969e-06</wgt>
  <wgt id="26">2.82485e-06</wgt>
  <wgt id="27">2.82517e-06</wgt>
  <wgt id="28">2.8384e-06</wgt>
  <wgt id="29">2.81981e-06</wgt>
  <wgt id="30">2.82946e-06</wgt>
  <wgt id="31">2.81902e-06</wgt>
  <wgt id="32">2.81973e-06</wgt>
  <wgt id="33">2.83004e-06</wgt>
  <wgt id="34">2.79097e-06</wgt>
  <wgt id="35">2.88726e-06</wgt>
  <wgt id="36">2.83249e-06</wgt>
  <wgt id="37">2.82177e-06</wgt>
  <wgt id="38">2.81849e-06</wgt>
  <wgt id="39">2.82858e-06</wgt>
  <wgt id="40">2.8391e-06</wgt>
  <wgt id="41">2.811e-06</wgt>
  <wgt id="42">2.84157e-06</wgt>
  <wgt id="43">2.79461e-06</wgt>
  <wgt id="44">2.83475e-06</wgt>
  <wgt id="45">2.82117e-06</wgt>
  <wgt id="46">2.82278e-06</wgt>
  <wgt id="47">2.82663e-06</wgt>
  <wgt id="48">2.81463e-06</wgt>
  <wgt id="49">2.83454e-06</wgt>
  <wgt id="50">2.81675e-06</wgt>
  <wgt id="51">2.83267e-06</wgt>
  <wgt id="52">2.83074e-06</wgt>
  <wgt id="53">2.82379e-06</wgt>
</rwgt>
</event>
<event>
 11      0 +2.8251000e-06 2.66862200e+02 7.54677100e-03 1.06381500e-01
        2 -1    0    0  503    0 +0.00000000000e+00 +0.00000000000e+00 +1.11283840860e+03  1.11283840860e+03  0.00000000000e+00 0.0000e+00 -1.0000e+00
        2 -1    0    0  501    0 +0.00000000000e+00 +0.00000000000e+00 -4.62142475100e+02  4.62142475100e+02  0.00000000000e+00 0.0000e+00 -1.0000e+00
       24  2    1    2    0    0 -9.43259902591e+01 +8.65355588524e+01 +3.22962816783e+02  3.56500621322e+02  8.00119778180e+01 0.0000e+00 0.0000e+00
       16  1    3    3    0    0 -9.80973755437e+01 +5.03241644932e+01 +2.75053616195e+02  2.96327704413e+02  0.00000000000e+00 0.0000e+00 -1.0000e+00
      -15  1    3    3    0    0 +3.77138528460e+00 +3.62113943592e+01 +4.79092005874e+01  6.01729169089e+01  1.77700000000e+00 0.0000e+00 1.0000e+00
       24  2    1    2    0    0 +2.33484373578e+01 +6.66460696478e+01 -3.70387773213e+02  3.85566155291e+02  8.05438354797e+01 0.0000e+00 0.0000e+00
        4  1    6    6  504    0 -5.16539183069e+00 +9.07720310086e+00 -2.39732962939e+02  2.39960351742e+02  0.00000000000e+00 0.0000e+00 -1.0000e+00
       -3  1    6    6    0  504 +2.85138291885e+01 +5.75688665469e+01 -1.30654810274e+02  1.45605803549e+02  0.00000000000e+00 0.0000e+00 1.0000e+00
       21  1    1    2  503  502 +8.31473984057e+01 +3.20040703533e+01 +4.94660780818e+01  1.01905069852e+02  0.00000000000e+00 0.0000e+00 -1.0000e+00
        1  1    1    2  501    0 +5.75515627234e+01 +1.36237172323e+01 +4.03296652376e+02  4.07610080666e+02  0.00000000000e+00 0.0000e+00 -1.0000e+00
        1  1    1    2  502    0 -6.97214082278e+01 -1.98809416086e+02 +2.45358159473e+02  3.23398956569e+02  0.00000000000e+00 0.0000e+00 -1.0000e+00
#  0.1300000e+05  0.1300000e+05  0.8904697e+02  0.1300000e+05  0.1300000e+05
<mgrwt>
<rscale>  2 0.21250774e+03</rscale>
<asrwt>  1 0.89046975e+02</asrwt>
<pdfrwt beam="1">  2        2        2 0.17120591e+00 0.14986047e+00 0.89046975e+02 0.26686224e+03</pdfrwt>
<pdfrwt beam="2">  1        2 0.71098842e-01 0.10730938e+03</pdfrwt>
<totfact> 0.33691814e-01</totfact>
</mgrwt>
<clustering>
<clus scale="   59.027">  3  6 -1 -1</clus>
<clus scale="   89.047">  1  5  2 -1</clus>
<clus scale="  107.309">  2  4  1 -1</clus>
<clus scale="  161.735">  2  7  1 -1</clus>
<clus scale="  266.862">  1  3  2 -1</clus>
</clustering>
<rwgt>
  <wgt id="1">4.6525e-06</wgt>
  <wgt id="2">3.06401e-06</wgt>
  <wgt id="3">2.1747e-06</wgt>
  <wgt id="4">4.28972e-06</wgt>
  <wgt id="5">2.8251e-06</wgt>
  <wgt id="6">2.00513e-06</wgt>
  <wgt id="7">3.97008e-06</wgt>
  <wgt id="8">2.61459e-06</wgt>
  <wgt id="9">1.85572e-06</wgt>
  <wgt id="10">3.59941e-06</wgt>
  <wgt id="11">2.8251e-06</wgt>
  <wgt id="12">2.32899e-06</wgt>
  <wgt id="13">2.8251e-06</wgt>
  <wgt id="14">2.82796e-06</wgt>
  <wgt id="15">2.82271e-06</wgt>
  <wgt id="16">2.81892e-06</wgt>
  <wgt id="17">2.83186e-06</wgt>
  <wgt id="18">2.81229e-06</wgt>
  <wgt id="19">2.84401e-06</wgt>
  <wgt id="20">2.81299e-06</wgt>
  <wgt id="21">2.8332e-06</wgt>
  <wgt id="22">2.83189e-06</wgt>
  <wgt id="23">2.81536e-06</wgt>
  <wgt id="24">2.86325e-06</wgt>
  <wgt id="25">2.80153e-06</wgt>
  <wgt id="26">2.82402e-06</wgt>
  <wgt id="27">2.82657e-06</wgt>
  <wgt id="28">2.87058e-06</wgt>
  <wgt id="29">2.8086e-06</wgt>
  <wgt id="30">2.83037e-06</wgt>
  <wgt id="31">2.8183e-06</wgt>
  <wgt id="32">2.82949e-06</wgt>
  <wgt id="33">2.82096e-06</wgt>
  <wgt id="34">2.78958e-06</wgt>
  <wgt id="35">2.89041e-06</wgt>
  <wgt id="36">2.84394e-06</wgt>
  <wgt id="37">2.81528e-06</wgt>
  <wgt id="38">2.81447e-06</wgt>
  <wgt id="39">2.83033e-06</wgt>
  <wgt id="40">2.82597e-06</wgt>
  <wgt id="41">2.82459e-06</wgt>
  <wgt id="42">2.84762e-06</wgt>
  <wgt id="43">2.78581e-06</wgt>
  <wgt id="44">2.83469e-06</wgt>
  <wgt id="45">2.82139e-06</wgt>
  <wgt id="46">2.8251e-06</wgt>
  <wgt id="47">2.82548e-06</wgt>
  <wgt id="48">2.80522e-06</wgt>
  <wgt id="49">2.83667e-06</wgt>
  <wgt id="50">2.81445e-06</wgt>
  <wgt id="51">2.83901e-06</wgt>
  <wgt id="52">2.83228e-06</wgt>
  <wgt id="53">2.82312e-06</wgt>
</rwgt>
</event>
<event>
 10      0 +2.8251000e-06 6.20741600e+02 7.54677100e-03 9.86307700e-02
        2 -1    0    0  502    0 +0.00000000000e+00 +0.00000000000e+00 +5.39871086710e+02  5.39871086710e+02  0.00000000000e+00 0.0000e+00 -1.0000e+00
       -1 -1    0    0    0  501 +0.00000000000e+00 +0.00000000000e+00 -2.33074053030e+02  2.33074053030e+02  0.00000000000e+00 0.0000e+00 1.0000e+00
       24  2    1    2    0    0 +2.61581198515e+01 +1.71931214136e+02 +9.78213489271e+01  2.15253125756e+02  8.07483883042e+01 0.0000e+00 0.0000e+00
        4  1    3    3  503    0 -1.16554975526e+01 +5.64106658286e+01 -2.48823392570e+00  5.76559203421e+01  0.00000000000e+00 0.0000e+00 -1.0000e+00
       -3  1    3    3    0  503 +3.78136174041e+01 +1.15520548307e+02 +1.00309582853e+02  1.57597205414e+02  0.00000000000e+00 0.0000e+00 1.0000e+00
       24  2    1    2    0    0 +2.44171352568e+01 +2.12427824837e+01 +5.42494941989e+01  1.02875825155e+02  8.11971395968e+01 0.0000e+00 0.0000e+00
       12  1    6    6    0    0 +8.69297932932e+00 -1.99524526563e+01 +5.46026337976e+01  5.87802337037e+01  0.00000000000e+00 0.0000e+00 -1.0000e+00
      -11  1    6    6    0    0 +1.57241559275e+01 +4.11952351400e+01 -3.53139598681e-01  4.40955914514e+01  0.00000000000e+00 0.0000e+00 1.0000e+00
        1  1    1    2  502    0 -3.89080999374e+00 -5.72116266327e+01 +2.66576377538e+02  2.72674299642e+02  0.00000000000e+00 0.0000e+00 -1.0000e+00
       -2  1    1    2    0  501 -4.66844451146e+01 -1.35962369987e+02 -1.11850186984e+02  1.82141889186e+02  0.00000000000e+00 0.0000e+00 1.0000e+00
#  0.1300000e+05  0.1300000e+05  0.1300000e+05  0.1416680e+03
<mgrwt>
<rscale>  2 0.38013919e+03</rscale>
<asrwt>0</asrwt>
<pdfrwt beam="1">  1        2 0.83057090e-01 0.87304795e+02</pdfrwt>
<pdfrwt beam="2">  1       -1 0.35857547e-01 0.62074156e+03</pdfrwt>
<totfact> 0.55492213e+00</totfact>
</mgrwt>
<clustering>
<clus scale="   58.016">  3  5 -1 -1</clus>
<clus scale="   87.305">  1  4  2 -1</clus>
<clus scale="  141.668">  3  6 -1 -1</clus>
<clus scale="  620.742">  1  3  2 -1</clus>
</clustering>
<rwgt>
  <wgt id="1">4.22165e-06</wgt>
  <wgt id="2">2.87995e-06</wgt>
  <wgt id="3">2.09332e-06</wgt>
  <wgt id="4">4.14125e-06</wgt>
  <wgt id="5">2.8251e-06</wgt>
  <wgt id="6">2.05346e-06</wgt>
  <wgt id="7">4.014e-06</wgt>
  <wgt id="8">2.73829e-06</wgt>
  <wgt id="9">1.99036e-06</wgt>
  <wgt id="10">2.8251e-06</wgt>
  <wgt id="11">2.8251e-06</wgt>
  <wgt id="12">2.8251e-06</wgt>
  <wgt id="13">2.8251e-06</wgt>
  <wgt id="14">2.83032e-06</wgt>
  <wgt id="15">2.82091e-06</wgt>
  <wgt id="16">2.84037e-06</wgt>
  <wgt id="17">2.80802e-06</wgt>
  <wgt id="18">2.81234e-06</wgt>
  <wgt id="19">2.84426e-06</wgt>
  <wgt id="20">2.83296e-06</wgt>
  <wgt id="21">2.81984e-06</wgt>
  <wgt id="22">2.83313e-06</wgt>
  <wgt id="23">2.81371e-06</wgt>
  <wgt id="24">2.86847e-06</wgt>
  <wgt id="25">2.7986e-06</wgt>
  <wgt id="26">2.82483e-06</wgt>
  <wgt id="27">2.82565e-06</wgt>
  <wgt id="28">2.84695e-06</wgt>
  <wgt id="29">2.81723e-06</wgt>
  <wgt id="30">2.82761e-06</wgt>
  <wgt id="31">2.82115e-06</wgt>
  <wgt id="32">2.83829e-06</wgt>
  <wgt id="33">2.81259e-06</wgt>
  <wgt id="34">2.80865e-06</wgt>
  <wgt id="35">2.8553e-06</wgt>
  <wgt id="36">2.8451e-06</wgt>
  <wgt id="37">2.81333e-06</wgt>
  <wgt id="38">2.83162e-06</wgt>
  <wgt id="39">2.82221e-06</wgt>
  <wgt id="40">2.81897e-06</wgt>
  <wgt id="41">2.83227e-06</wgt>
  <wgt id="42">2.8434e-06</wgt>
  <wgt id="43">2.78241e-06</wgt>
  <wgt id="44">2.83439e-06</wgt>
  <wgt id="45">2.82171e-06</wgt>
  <wgt id="46">2.81944e-06</wgt>
  <wgt id="47">2.82986e-06</wgt>
  <wgt id="48">2.81258e-06</wgt>
  <wgt id="49">2.83078e-06</wgt>
  <wgt id="50">2.82896e-06</wgt>
  <wgt id="51">2.81875e-06</wgt>
  <wgt id="52">2.82923e-06</wgt>
  <wgt id="53">2.82384e-06</wgt>
</rwgt>
</event>
<event>
 12      0 +2.8251000e-06 3.10065200e+02 7.54677100e-03 1.02934700e-01
        2 -1    0    0  503    0 +0.00000000000e+00 +0.00000000000e+00 +3.18518300670e+03  3.18518300670e+03  0.00000000000e+00 0.0000e+00 -1.0000e+00
        2 -1    0    0  501    0 +0.00000000000e+00 +0.00000000000e+00 -2.27991838690e+02  2.27991838690e+02  0.00000000000e+00 0.0000e+00 -1.0000e+00
       24  2    1    2    0    0 +3.85054703844e+01 -5.96510189282e+01 -8.68808389222e+00  1.07752267442e+02  8.05863079465e+01 0.0000e+00 0.0000e+00
        4  1    3    3  505    0 +6.26431194837e+01 -4.42720447499e+01 +3.16655711849e+00  7.67737028478e+01  0.00000000000e+00 0.0000e+00 -1.0000e+00
       -3  1    3    3    0  505 -2.41376490992e+01 -1.53789741783e+01 -1.18546410107e+01  3.09785645940e+01  0.00000000000e+00 0.0000e+00 1.0000e+00
       24  2    1    2    0    0 +1.43190381309e+02 +7.44083793086e+01 +1.12576939213e+03  1.14013435777e+03  8.06817037013e+01 0.0000e+00 0.0000e+00
        2  1    6    6  506    0 +1.52291389919e+02 +6.07522408947e+01 +1.03023359900e+03  1.04319929578e+03  0.00000000000e+00 0.0000e+00 -1.0000e+00
       -1  1    6    6    0  506 -9.10100861094e+00 +1.36561384139e+01 +9.55357931317e+01  9.69350619922e+01  0.00000000000e+00 0.0000e+00 1.0000e+00
       21  1    1    2  503  504 +5.22018444095e+00 -1.07596551763e+02 +1.02536359778e+02  1.48721126117e+02  0.00000000000e+00 0.0000e+00 -1.0000e+00
       21  1    1    2  504  502 -3.94067822217e+01 -1.58346935060e+02 +2.21568483567e+02  2.75171290723e+02  0.00000000000e+00 0.0000e+00 -1.0000e+00
        1  1    1    2  501    0 -2.30159030429e+01 +4.48601190962e+02 +1.41943592782e+03  1.48881533896e+03  0.00000000000e+00 0.0000e+00 -1.0000e+00
        1  1    1    2  502    0 -1.24493350869e+02 -1.97415064519e+02 +9.65690886053e+01  2.52580464375e+02  0.00000000000e+00 0.0000e+00 -1.0000e+00
#  0.1300000e+05  0.1300000e+05  0.4255245e+02  0.1742183e+03  0.1300000e+05  0.1300000e+05
<mgrwt>
<rscale>  2 0.27221114e+03</rscale>
<asrwt>  2 0.42552454e+02 0.17421828e+03</asrwt>
<pdfrwt beam="1">  1        2 0.49002815e+00 0.18065732e+03</pdfrwt>
<pdfrwt beam="2">  1        2 0.35075667e-01 0.10731658e+03</pdfrwt>
<totfact> 0.59324333e-03</totfact>
</mgrwt>
<clustering>
<clus scale="   42.552">  5  6 -1 -1</clus>
<clus scale="  107.317">  2  3  1 -1</clus>
<clus scale="  174.218">  5  8 -1 -1</clus>
<clus scale="  180.657">  1  4  2 -1</clus>
<clus scale="  492.354">  1  7  2 -1</clus>
<clus scale="  532.170">  1  3  2 -1</clus>
</clustering>
<rwgt>
  <wgt id="1">5.18878e-06</wgt>
  <wgt id="2">3.47116e-06</wgt>
  <wgt id="3">2.48984e-06</wgt>
  <wgt id="4">4.22303e-06</wgt>
  <wgt id="5">2.8251e-06</wgt>
  <wgt id="6">2.02643e-06</wgt>
  <wgt id="7">3.51687e-06</wgt>
  <wgt id="8">2.3527e-06</wgt>
  <wgt id="9">1.68758e-06</wgt>
  <wgt id="10">4.64081e-06</wgt>
  <wgt id="11">2.8251e-06</wgt>
  <wgt id="12">1.90828e-06</wgt>
  <wgt id="13">2.8251e-06</wgt>
  <wgt id="14">2.82895e-06</wgt>
  <wgt id="15">2.822e-06</wgt>
  <wgt id="16">2.81455e-06</wgt>
  <wgt id="17">2.83677e-06</wgt>
  <wgt id="18">2.81056e-06</wgt>
  <wgt id="19">2.84669e-06</wgt>
  <wgt id="20">2.81804e-06</wgt>
  <wgt id="21">2.82996e-06</wgt>
  <wgt id="22">2.83324e-06</wgt>
  <wgt id="23">2.81358e-06</wgt>
  <wgt id="24">2.86981e-06</wgt>
  <wgt id="25">2.79765e-06</wgt>
  <wgt id="26">2.82445e-06</wgt>
  <wgt id="27">2.82617e-06</wgt>
  <wgt id="28">2.83282e-06</wgt>
  <wgt id="29">2.82191e-06</wgt>
  <wgt id="30">2.8283e-06</wgt>
  <wgt id="31">2.82078e-06</wgt>
  <wgt id="32">2.81778e-06</wgt>
  <wgt id="33">2.83215e-06</wgt>
  <wgt id="34">2.79028e-06</wgt>
  <wgt id="35">2.88852e-06</wgt>
  <wgt id="36">2.83678e-06</wgt>
  <wgt id="37">2.81917e-06</wgt>
  <wgt id="38">2.81791e-06</wgt>
  <wgt id="39">2.82897e-06</wgt>
  <wgt id="40">2.84286e-06</wgt>
  <wgt id="41">2.80758e-06</wgt>
  <wgt id="42">2.8425e-06</wgt>
  <wgt id="43">2.79284e-06</wgt>
  <wgt id="44">2.83611e-06</wgt>
  <wgt id="45">2.8207e-06</wgt>
  <wgt id="46">2.82349e-06</wgt>
  <wgt id="47">2.8265e-06</wgt>
  <wgt id="48">2.81115e-06</wgt>
  <wgt id="49">2.837e-06</wgt>
  <wgt id="50">2.81409e-06</wgt>
  <wgt id="51">2.83692e-06</wgt>
  <wgt id="52">2.82896e-06</wgt>
  <wgt id="53">2.82438e-06</wgt>
</rwgt>
</event>
<event>
 10      0 +2.8251000e-06 3.75238800e+02 7.54677100e-03 1.01023700e-01
        2 -1    0    0  501    0 +0.00000000000e+00 +0.00000000000e+00 +2.57308637810e+02  2.57308637810e+02  0.00000000000e+00 0.0000e+00 -1.0000e+00
        2 -1    0    0  502    0 +0.00000000000e+00 +0.00000000000e+00 -3.58462202350e+02  3.58462202350e+02  0.00000000000e+00 0.0000e+00 -1.0000e+00
       24  2    1    2    0    0 -9.20972735278e+01 -4.14301953155e+01 -8.28035923846e+01  1.53354718025e+02  8.03919508018e+01 0.0000e+00 0.0000e+00
        2  1    3    3  503    0 -4.40088601313e+01 -5.99469913788e+01 -6.51979258167e+01  9.88999043287e+01  0.00000000000e+00 0.0000e+00 -1.0000e+00
       -1  1    3    3    0  503 -4.80884133965e+01 +1.85167960633e+01 -1.76056665679e+01  5.44548136967e+01  0.00000000000e+00 0.0000e+00 1.0000e+00
       24  2    1    2    0    0 +7.36764929428e+01 -4.47392661704e+01 -1.39537272621e+02  1.83121739436e+02  8.14438054961e+01 0.0000e+00 0.0000e+00
        2  1    6    6  504    0 +9.17205190176e+01 -3.79983496547e+01 -1.14964765901e+02  1.51899392967e+02  0.00000000000e+00 0.0000e+00 -1.0000e+00
       -1  1    6    6    0  504 -1.80440260748e+01 -6.74091651575e+00 -2.45725067205e+01  3.12223464684e+01  0.00000000000e+00 0.0000e+00 1.0000e+00
        1  1    1    2  501    0 +3.96827578415e+01 +3.45181852275e+01 -6.57458020671e+01  8.41946368289e+01  0.00000000000e+00 0.0000e+00 -1.0000e+00
        1  1    1    2  502    0 -2.12619772565e+01 +5.16512762584e+01 +1.86933102533e+02  1.95099745870e+02  0.00000000000e+00 0.0000e+00 -1.0000e+00
#  0.1300000e+05  0.1300000e+05  0.1300000e+05  0.1300000e+05
<mgrwt>
<rscale>  2 0.31458908e+03</rscale>
<asrwt>0</asrwt>
<pdfrwt beam="1">  1        2 0.39585944e-01 0.37523875e+03</pdfrwt>
<pdfrwt beam="2">  1        2 0.55148031e-01 0.18537516e+03</pdfrwt>
<totfact> 0.18281814e+01</totfact>
</mgrwt>
<clustering>
<clus scale="   52.591">  3  5 -1 -1</clus>
<clus scale="   56.948">  4  6 -1 -1</clus>
<clus scale="  185.375">  2  3  1 -1</clus>
<clus scale="  375.239">  1  3  2 -1</clus>
</clustering>
<rwgt>
  <wgt id="1">4.13514e-06</wgt>
  <wgt id="2">2.79068e-06</wgt>
  <wgt id="3">2.01357e-06</wgt>
  <wgt id="4">4.18615e-06</wgt>
  <wgt id="5">2.8251e-06</wgt>
  <wgt id="6">2.0384e-06</wgt>
  <wgt id="7">4.17236e-06</wgt>
  <wgt id="8">2.81579e-06</wgt>
  <wgt id="9">2.03169e-06</wgt>
  <wgt id="10">2.8251e-06</wgt>
  <wgt id="11">2.8251e-06</wgt>
  <wgt id="12">2.8251e-06</wgt>
  <wgt id="13">2.8251e-06</wgt>
  <wgt id="14">2.82858e-06</wgt>
  <wgt id="15">2.82225e-06</wgt>
  <wgt id="16">2.83261e-06</wgt>
  <wgt id="17">2.81657e-06</wgt>
  <wgt id="18">2.81469e-06</wgt>
  <wgt id="19">2.84058e-06</wgt>
  <wgt id="20">2.81432e-06</wgt>
  <wgt id="21">2.83237e-06</wgt>
  <wgt id="22">2.82988e-06</wgt>
  <wgt id="23">2.81834e-06</wgt>
  <wgt id="24">2.85273e-06</wgt>
  <wgt id="25">2.80802e-06</wgt>
  <wgt id="26">2.82322e-06</wgt>
  <wgt id="27">2.82775e-06</wgt>
  <wgt id="28">2.85088e-06</wgt>
  <wgt id="29">2.81567e-06</wgt>
  <wgt id="30">2.83006e-06</wgt>
  <wgt id="31">2.81839e-06</wgt>
  <wgt id="32">2.8313e-06</wgt>
  <wgt id="33">2.8192e-06</wgt>
  <wgt id="34">2.79897e-06</wgt>
  <wgt id="35">2.87243e-06</wgt>
  <wgt id="36">2.82377e-06</wgt>
  <wgt id="37">2.82769e-06</wgt>
  <wgt id="38">2.81986e-06</wgt>
  <wgt id="39">2.82753e-06</wgt>
  <wgt id="40">2.82549e-06</wgt>
  <wgt id="41">2.82519e-06</wgt>
  <wgt id="42">2.84165e-06</wgt>
  <wgt id="43">2.79025e-06</wgt>
  <wgt id="44">2.8365e-06</wgt>
  <wgt id="45">2.82051e-06</wgt>
  <wgt id="46">2.82456e-06</wgt>
  <wgt id="47">2.82616e-06</wgt>
  <wgt id="48">2.78371e-06</wgt>
  <wgt id="49">2.84436e-06</wgt>
  <wgt id="50">2.81369e-06</wgt>
  <wgt id="51">2.8355e-06</wgt>
  <wgt id="52">2.81965e-06</wgt>
  <wgt id="53">2.82627e-06</wgt>
</rwgt>
</event>
<event>
 10      0 +2.8251000e-06 2.37970400e+02 7.54677100e-03 1.06373700e-01
        2 -1    0    0  502    0 +0.00000000000e+00 +0.00000000000e+00 +7.98515483660e+02  7.98515483660e+02  0.00000000000e+00 0.0000e+00 -1.0000e+00
        2 -1    0    0  501    0 +0.00000000000e+00 +0.00000000000e+00 -9.45556064000e+02  9.45556064000e+02  0.00000000000e+00 0.0000e+00 -1.0000e+00
       24  2    1    2    0    0 +5.76448977394e+00 +3.94683388912e+01 +3.73022663869e+02  3.83739239051e+02  8.07398087047e+01 0.0000e+00 0.0000e+00
        4  1    3    3  503    0 -3.16136229132e+01 +2.15698262449e+01 +2.69914149266e+02  2.72613878098e+02  0.00000000000e+00 0.0000e+00 -1.0000e+00
       -3  1    3    3    0  503 +3.73781126871e+01 +1.78985126463e+01 +1.03108514604e+02  1.11125360952e+02  0.00000000000e+00 0.0000e+00 1.0000e+00
       24  2    1    2    0    0 -2.78126443260e+01 -1.17957288902e+02 -3.97455765451e+02  4.24082832366e+02  8.47802926857e+01 0.0000e+00 0.0000e+00
        2  1    6    6  504    0 +1.32163620105e+01 +7.98305099548e+00 -4.27905920145e+01  4.54910550871e+01  0.00000000000e+00 0.0000e+00 -1.0000e+00
       -1  1    6    6    0  504 -4.10290063366e+01 -1.25940339898e+02 -3.54665173437e+02  3.78591777279e+02  0.00000000000e+00 0.0000e+00 1.0000e+00
        1  1    1    2  501    0 -2.62590275550e+01 +3.96475842747e+02 +2.29898687256e+02  4.59059949039e+02  0.00000000000e+00 0.0000e+00 -1.0000e+00
        1  1    1    2  502    0 +4.83071821071e+01 -3.17986892736e+02 -3.52506166014e+02  4.77189527204e+02  0.00000000000e+00 0.0000e+00 -1.0000e+00
#  0.1300000e+05  0.1300000e+05  0.1300000e+05  0.1300000e+05
<mgrwt>
<rscale>  2 0.21262243e+03</rscale>
<asrwt>0</asrwt>
<pdfrwt beam="1">  1        2 0.12284854e+00 0.89918838e+02</pdfrwt>
<pdfrwt beam="2">  1        2 0.14547016e+00 0.14109328e+03</pdfrwt>
<totfact> 0.19558318e+00</totfact>
</mgrwt>
<clustering>
<clus scale="   89.919">  1  3  2 -1</clus>
<clus scale="  141.093">  2  4  1 -1</clus>
<clus scale="  401.365">  1  5  2 -1</clus>
<clus scale="  401.365">  1  3  2 -1</clus>
</clustering>
<rwgt>
  <wgt id="1">4.84484e-06</wgt>
  <wgt id="2">3.1908e-06</wgt>
  <wgt id="3">2.26474e-06</wgt>
  <wgt id="4">4.28957e-06</wgt>
  <wgt id="5">2.8251e-06</wgt>
  <wgt id="6">2.00518e-06</wgt>
  <wgt id="7">3.83803e-06</wgt>
  <wgt id="8">2.52772e-06</wgt>
  <wgt id="9">1.7941e-06</wgt>
  <wgt id="10">2.8251e-06</wgt>
  <wgt id="11">2.8251e-06</wgt>
  <wgt id="12">2.8251e-06</wgt>
  <wgt id="13">2.8251e-06</wgt>
  <wgt id="14">2.82787e-06</wgt>
  <wgt id="15">2.8228e-06</wgt>
  <wgt id="16">2.81588e-06</wgt>
  <wgt id="17">2.83531e-06</wgt>
  <wgt id="18">2.81186e-06</wgt>
  <wgt id="19">2.84467e-06</wgt>
  <wgt id="20">2.81167e-06</wgt>
  <wgt id="21">2.83413e-06</wgt>
  <wgt id="22">2.83221e-06</wgt>
  <wgt id="23">2.81506e-06</wgt>
  <wgt id="24">2.86483e-06</wgt>
  <wgt id="25">2.80061e-06</wgt>
  <wgt id="26">2.82417e-06</wgt>
  <wgt id="27">2.8264e-06</wgt>
  <wgt id="28">2.87644e-06</wgt>
  <wgt id="29">2.80658e-06</wgt>
  <wgt id="30">2.83089e-06</wgt>
  <wgt id="31">2.81781e-06</wgt>
  <wgt id="32">2.82929e-06</wgt>
  <wgt id="33">2.82112e-06</wgt>
  <wgt id="34">2.78802e-06</wgt>
  <wgt id="35">2.89363e-06</wgt>
  <wgt id="36">2.85435e-06</wgt>
  <wgt id="37">2.80884e-06</wgt>
  <wgt id="38">2.8117e-06</wgt>
  <wgt id="39">2.83167e-06</wgt>
  <wgt id="40">2.82525e-06</wgt>
  <wgt id="41">2.82547e-06</wgt>
  <wgt id="42">2.84936e-06</wgt>
  <wgt id="43">2.78453e-06</wgt>
  <wgt id="44">2.83451e-06</wgt>
  <wgt id="45">2.82153e-06</wgt>
  <wgt id="46">2.82549e-06</wgt>
  <wgt id="47">2.82514e-06</wgt>
  <wgt id="48">2.81092e-06</wgt>
  <wgt id="49">2.83421e-06</wgt>
  <wgt id="50">2.81457e-06</wgt>
  <wgt id="51">2.83947e-06</wgt>
  <wgt id="52">2.83614e-06</wgt>
  <wgt id="53">2.8221e-06</wgt>
</rwgt>
</event>
<event>
 10      0 +2.8251000e-06 2.31277900e+02 7.54677100e-03 1.06444200e-01
       -1 -1    0    0    0  501 +0.00000000000e+00 +0.00000000000e+00 +3.78584836790e+02  3.78584836790e+02  0.00000000000e+00 0.0000e+00 1.0000e+00
       -1 -1    0    0    0  502 +0.00000000000e+00 +0.00000000000e+00 -1.02330495280e+02  1.02330495280e+02  0.00000000000e+00 0.0000e+00 1.0000e+00
       24  2    1    2    0    0 +6.39079827475e+01 +9.99527805230e+01 +3.91517224397e+01  1.49915680816e+02  8.28677584560e+01 0.0000e+00 0.0000e+00
        4  1    3    3  503    0 +4.11733939001e+01 -1.02714496067e+00 +1.22508362705e+01  4.29695983382e+01  0.00000000000e+00 0.0000e+00 -1.0000e+00
       -3  1    3    3    0  503 +2.27345888474e+01 +1.00979925484e+02 +2.69008861691e+01  1.06946082478e+02  0.00000000000e+00 0.0000e+00 1.0000e+00
       24  2    1    2    0    0 -1.06271096572e+00 +8.63071524947e+00 +3.08637523408e+01  8.55867312272e+01  7.93530009092e+01 0.0000e+00 0.0000e+00
        2  1    6    6  504    0 +2.44894955992e+01 -2.62916626817e+01 +1.93475628153e+01  4.08082725457e+01  0.00000000000e+00 0.0000e+00 -1.0000e+00
       -1  1    6    6    0  504 -2.55522065650e+01 +3.49223779312e+01 +1.15161895256e+01  4.47784586815e+01  0.00000000000e+00 0.0000e+00 1.0000e+00
       -2  1    1    2    0  501 -1.13499481948e+01 -5.66803565820e+01 +1.12987884908e+02  1.26916296363e+02  0.00000000000e+00 0.0000e+00 1.0000e+00
       -2  1    1    2    0  502 -5.14953235870e+01 -5.19031391905e+01 +9.32509818210e+01  1.18496623664e+02  0.00000000000e+00 0.0000e+00 1.0000e+00
#  0.1300000e+05  0.1300000e+05  0.1300000e+05  0.1300000e+05
<mgrwt>
<rscale>  2 0.21158390e+03</rscale>
<asrwt>0</asrwt>
<pdfrwt beam="1">  1       -1 0.58243821e-01 0.16200478e+03</pdfrwt>
<pdfrwt beam="2">  1       -1 0.15743153e-01 0.23127794e+03</pdfrwt>
<totfact> 0.11417171e+01</totfact>
</mgrwt>
<clustering>
<clus scale="   58.356">  3  5 -1 -1</clus>
<clus scale="   72.301">  4  6 -1 -1</clus>
<clus scale="  162.005">  1  4  2 -1</clus>
<clus scale="  231.278">  1  3  2 -1</clus>
</clustering>
<rwgt>
  <wgt id="1">4.10625e-06</wgt>
  <wgt id="2">2.70349e-06</wgt>
  <wgt id="3">1.91845e-06</wgt>
  <wgt id="4">4.29096e-06</wgt>
  <wgt id="5">2.8251e-06</wgt>
  <wgt id="6">2.00474e-06</wgt>
  <wgt id="7">4.34469e-06</wgt>
  <wgt id="8">2.86047e-06</wgt>
  <wgt id="9">2.02985e-06</wgt>
  <wgt id="10">2.8251e-06</wgt>
  <wgt id="11">2.8251e-06</wgt>
  <wgt id="12">2.8251e-06</wgt>
  <wgt id="13">2.8251e-06</wgt>
  <wgt id="14">2.83188e-06</wgt>
  <wgt id="15">2.81942e-06</wgt>
  <wgt id="16">2.8554e-06</wgt>
  <wgt id="17">2.79122e-06</wgt>
  <wgt id="18">2.81218e-06</wgt>
  <wgt id="19">2.84421e-06</wgt>
  <wgt id="20">2.85647e-06</wgt>
  <wgt id="21">2.80403e-06</wgt>
  <wgt id="22">2.83482e-06</wgt>
  <wgt id="23">2.81133e-06</wgt>
  <wgt id="24">2.87458e-06</wgt>
  <wgt id="25">2.79494e-06</wgt>
  <wgt id="26">2.8276e-06</wgt>
  <wgt id="27">2.82149e-06</wgt>
  <wgt id="28">2.82719e-06</wgt>
  <wgt id="29">2.82438e-06</wgt>
  <wgt id="30">2.82981e-06</wgt>
  <wgt id="31">2.81619e-06</wgt>
  <wgt id="32">2.84437e-06</wgt>
  <wgt id="33">2.80639e-06</wgt>
  <wgt id="34">2.81761e-06</wgt>
  <wgt id="35">2.83771e-06</wgt>
  <wgt id="36">2.84488e-06</wgt>
  <wgt id="37">2.81015e-06</wgt>
  <wgt id="38">2.85452e-06</wgt>
  <wgt id="39">2.81128e-06</wgt>
  <wgt id="40">2.81431e-06</wgt>
  <wgt id="41">2.83771e-06</wgt>
  <wgt id="42">2.83656e-06</wgt>
  <wgt id="43">2.78569e-06</wgt>
  <wgt id="44">2.83267e-06</wgt>
  <wgt id="45">2.82239e-06</wgt>
  <wgt id="46">2.81428e-06</wgt>
  <wgt id="47">2.83352e-06</wgt>
  <wgt id="48">2.82904e-06</wgt>
  <wgt id="49">2.82254e-06</wgt>
  <wgt id="50">2.83367e-06</wgt>
  <wgt id="51">2.80464e-06</wgt>
  <wgt id="52">2.82779e-06</wgt>
  <wgt id="53">2.82421e-06</wgt>
</rwgt>
</event>
<event>
 12      0 +2.8251000e-06 2.77511300e+02 7.54677100e-03 1.03585000e-01
        2 -1    0    0  503    0 +0.00000000000e+00 +0.00000000000e+00 +2.52436125160e+02  2.52436125160e+02  0.00000000000e+00 0.0000e+00 1.0000e+00
        2 -1    0    0  501    0 +0.00000000000e+00 +0.00000000000e+00 -3.11304747350e+03  3.11304747350e+03  0.00000000000e+00 0.0000e+00 -1.0000e+00
       24  2    1    2    0    0 -2.72024849817e+01 -5.32939268324e+01 -7.00654930985e+01  1.20492109717e+02  7.76463608575e+01 0.0000e+00 0.0000e+00
        4  1    3    3  504    0 +1.51591122557e+01 -5.32553016495e+01 -3.50469042615e+01  6.55302322327e+01  0.00000000000e+00 0.0000e+00 -1.0000e+00
       -3  1    3    3    0  504 -4.23615972374e+01 -3.86251828219e-02 -3.50185888370e+01  5.49618774838e+01  0.00000000000e+00 0.0000e+00 1.0000e+00
       24  2    1    2    0    0 -2.44111989185e+00 +4.83164554961e+01 -9.66435789664e+02  9.70978093213e+02  8.03733974452e+01 0.0000e+00 0.0000e+00
        2  1    6    6  505    0 +8.45853794466e+00 +5.88652393257e+01 -4.05540250190e+02  4.09877491196e+02  0.00000000000e+00 0.0000e+00 -1.0000e+00
       -1  1    6    6    0  505 -1.08996578365e+01 -1.05487838296e+01 -5.60895539474e+02  5.61100602017e+02  0.00000000000e+00 0.0000e+00 1.0000e+00
        2  1    1    2  501    0 +1.20315862080e+02 +5.45018966562e+01 -8.51192819228e+01  1.57135787020e+02  0.00000000000e+00 0.0000e+00 1.0000e+00
        1  1    1    2  502    0 -3.06966359336e+01 +9.54070039057e+01 -4.53169835676e+02  4.64120329030e+02  0.00000000000e+00 0.0000e+00 -1.0000e+00
        3  1    1    2  503    0 +8.31181130479e+01 +5.54962292802e+01 -1.38402778271e+03  1.38763156331e+03  0.00000000000e+00 0.0000e+00 -1.0000e+00
       -4  1    1    2    0  502 -1.43093734321e+02 -2.00427658506e+02 +9.82068347279e+01  2.65125716375e+02  0.00000000000e+00 0.0000e+00 1.0000e+00
#  0.1300000e+05  0.1300000e+05  0.1320847e+03  0.1300000e+05  0.1010275e+03  0.1300000e+05
<mgrwt>
<rscale>  2 0.25944997e+03</rscale>
<asrwt>  2 0.13208468e+03 0.10102750e+03</asrwt>
<pdfrwt beam="1">  2        2       -3 0.38836327e-01 0.16374628e-01 0.13208468e+03 0.27751129e+03</pdfrwt>
<pdfrwt beam="2">  1        2 0.47893038e+00 0.21201791e+03</pdfrwt>
<totfact> 0.55044495e-03</totfact>
</mgrwt>
<clustering>
<clus scale="  100.178">  4  6 -1 -1</clus>
<clus scale="  132.085">  1  5  2 -1</clus>
<clus scale="  101.027">  1  7  2 -1</clus>
<clus scale="  110.192">  3  8 -1 -1</clus>
<clus scale="  212.018">  2  4  1 -1</clus>
<clus scale="  277.511">  1  3  2 -1</clus>
</clustering>
<rwgt>
  <wgt id="1">5.06952e-06</wgt>
  <wgt id="2">3.38148e-06</wgt>
  <wgt id="3">2.42068e-06</wgt>
  <wgt id="4">4.2354e-06</wgt>
  <wgt id="5">2.8251e-06</wgt>
  <wgt id="6">2.02239e-06</wgt>
  <wgt id="7">3.68841e-06</wgt>
  <wgt id="8">2.46025e-06</wgt>
  <wgt id="9">1.76121e-06</wgt>
  <wgt id="10">4.48673e-06</wgt>
  <wgt id="11">2.8251e-06</wgt>
  <wgt id="12">1.94705e-06</wgt>
  <wgt id="13">2.8251e-06</wgt>
  <wgt id="14">2.829e-06</wgt>
  <wgt id="15">2.82201e-06</wgt>
  <wgt id="16">2.81483e-06</wgt>
  <wgt id="17">2.8365e-06</wgt>
  <wgt id="18">2.80956e-06</wgt>
  <wgt id="19">2.84847e-06</wgt>
  <wgt id="20">2.81825e-06</wgt>
  <wgt id="21">2.83003e-06</wgt>
  <wgt id="22">2.83329e-06</wgt>
  <wgt id="23">2.81367e-06</wgt>
  <wgt id="24">2.86911e-06</wgt>
  <wgt id="25">2.79822e-06</wgt>
  <wgt id="26">2.82429e-06</wgt>
  <wgt id="27">2.82651e-06</wgt>
  <wgt id="28">2.83636e-06</wgt>
  <wgt id="29">2.82068e-06</wgt>
  <wgt id="30">2.82649e-06</wgt>
  <wgt id="31">2.82333e-06</wgt>
  <wgt id="32">2.81862e-06</wgt>
  <wgt id="33">2.83143e-06</wgt>
  <wgt id="34">2.79172e-06</wgt>
  <wgt id="35">2.88622e-06</wgt>
  <wgt id="36">2.83529e-06</wgt>
  <wgt id="37">2.82034e-06</wgt>
  <wgt id="38">2.81699e-06</wgt>
  <wgt id="39">2.82964e-06</wgt>
  <wgt id="40">2.84162e-06</wgt>
  <wgt id="41">2.80867e-06</wgt>
  <wgt id="42">2.84257e-06</wgt>
  <wgt id="43">2.79325e-06</wgt>
  <wgt id="44">2.83753e-06</wgt>
  <wgt id="45">2.82032e-06</wgt>
  <wgt id="46">2.82177e-06</wgt>
  <wgt id="47">2.82783e-06</wgt>
  <wgt id="48">2.81219e-06</wgt>
  <wgt id="49">2.83653e-06</wgt>
  <wgt id="50">2.81685e-06</wgt>
  <wgt id="51">2.83615e-06</wgt>
  <wgt id="52">2.83375e-06</wgt>
  <wgt id="53">2.82394e-06</wgt>
</rwgt>
</event>
<event>
 11      0 +2.8251000e-06 4.57159000e+02 7.54677100e-03 9.69672200e-02
        2 -1    0    0  503    0 +0.00000000000e+00 +0.00000000000e+00 +3.44886712170e+03  3.44886712170e+03  0.00000000000e+00 0.0000e+00 -1.0000e+00
       -3 -1    0    0    0  501 +0.00000000000e+00 +0.00000000000e+00 -1.46655780800e+02  1.46655780800e+02  0.00000000000e+00 0.0000e+00 1.0000e+00
       24  2    1    2    0    0 -2.71311544864e+02 -5.65368107727e+00 +2.10373301395e+03  2.12269654005e+03  8.06603287937e+01 0.0000e+00 0.0000e+00
       16  1    3    3    0    0 -4.96475443113e+01 +2.76768475496e+01 +3.30567710111e+02  3.35418988005e+02  0.00000000000e+00 0.0000e+00 -1.0000e+00
      -15  1    3    3    0    0 -2.21664000553e+02 -3.33305286269e+01 +1.77316530384e+03  1.78727755204e+03  1.77700000000e+00 0.0000e+00 1.0000e+00
       24  2    1    2    0    0 +2.96746316917e+02 +1.79786287986e+02 +3.70675177654e+02  5.14246118002e+02  8.16547402137e+01 0.0000e+00 0.0000e+00
        2  1    6    6  504    0 +6.38599308100e+01 +1.44564145139e+01 +3.76766337023e+01  7.55420903258e+01  0.00000000000e+00 0.0000e+00 -1.0000e+00
       -1  1    6    6    0  504 +2.32886386107e+02 +1.65329873472e+02 +3.32998543951e+02  4.38704027676e+02  0.00000000000e+00 0.0000e+00 1.0000e+00
       21  1    1    2  503  501 -2.54297527187e+01 -9.77388727155e+01 +6.27113269936e+01  1.18879224831e+02  0.00000000000e+00 0.0000e+00 1.0000e+00
        1  1    1    2  502    0 -9.21779169142e+01 +6.84789032883e+00 +6.86568403976e+02  6.92762466728e+02  0.00000000000e+00 0.0000e+00 -1.0000e+00
       -4  1    1    2    0  502 +9.21728975795e+01 -8.32416245220e+01 +7.85234183230e+01  1.46938552893e+02  0.00000000000e+00 0.0000e+00 1.0000e+00
#  0.1300000e+05  0.1300000e+05  0.1009917e+03  0.1300000e+05  0.1300000e+05
<mgrwt>
<rscale>  2 0.43599501e+03</rscale>
<asrwt>  1 0.10099174e+03</asrwt>
<pdfrwt beam="1">  1        2 0.53059494e+00 0.37820232e+03</pdfrwt>
<pdfrwt beam="2">  2       -3       -3 0.22562428e-01 0.17647908e-01 0.10099174e+03 0.45715902e+03</pdfrwt>
<totfact> 0.17540780e-02</totfact>
</mgrwt>
<clustering>
<clus scale="   92.420">  3  6 -1 -1</clus>
<clus scale="  100.992">  2  5  1 -1</clus>
<clus scale="  140.472">  4  7 -1 -1</clus>
<clus scale="  378.202">  1  3  2 -1</clus>
<clus scale="  457.159">  1  3  2 -1</clus>
</clustering>
<rwgt>
  <wgt id="1">4.85653e-06</wgt>
  <wgt id="2">3.3367e-06</wgt>
  <wgt id="3">2.43788e-06</wgt>
  <wgt id="4">4.1119e-06</wgt>
  <wgt id="5">2.8251e-06</wgt>
  <wgt id="6">2.06409e-06</wgt>
  <wgt id="7">3.51932e-06</wgt>
  <wgt id="8">2.41796e-06</wgt>
  <wgt id="9">1.76662e-06</wgt>
  <wgt id="10">3.57971e-06</wgt>
  <wgt id="11">2.8251e-06</wgt>
  <wgt id="12">2.33712e-06</wgt>
  <wgt id="13">2.8251e-06</wgt>
  <wgt id="14">2.83288e-06</wgt>
  <wgt id="15">2.81866e-06</wgt>
  <wgt id="16">2.79271e-06</wgt>
  <wgt id="17">2.86156e-06</wgt>
  <wgt id="18">2.83482e-06</wgt>
  <wgt id="19">2.81038e-06</wgt>
  <wgt id="20">2.80839e-06</wgt>
  <wgt id="21">2.83637e-06</wgt>
  <wgt id="22">2.84261e-06</wgt>
  <wgt id="23">2.80028e-06</wgt>
  <wgt id="24">2.8541e-06</wgt>
  <wgt id="25">2.80731e-06</wgt>
  <wgt id="26">2.82667e-06</wgt>
  <wgt id="27">2.82303e-06</wgt>
  <wgt id="28">2.8115e-06</wgt>
  <wgt id="29">2.82966e-06</wgt>
  <wgt id="30">2.83644e-06</wgt>
  <wgt id="31">2.8091e-06</wgt>
  <wgt id="32">2.80641e-06</wgt>
  <wgt id="33">2.843e-06</wgt>
  <wgt id="34">2.79182e-06</wgt>
  <wgt id="35">2.88623e-06</wgt>
  <wgt id="36">2.85254e-06</wgt>
  <wgt id="37">2.80886e-06</wgt>
  <wgt id="38">2.81601e-06</wgt>
  <wgt id="39">2.82959e-06</wgt>
  <wgt id="40">2.8492e-06</wgt>
  <wgt id="41">2.80213e-06</wgt>
  <wgt id="42">2.83246e-06</wgt>
  <wgt id="43">2.81285e-06</wgt>
  <wgt id="44">2.81293e-06</wgt>
  <wgt id="45">2.82971e-06</wgt>
  <wgt id="46">2.85429e-06</wgt>
  <wgt id="47">2.80427e-06</wgt>
  <wgt id="48">2.82506e-06</wgt>
  <wgt id="49">2.83201e-06</wgt>
  <wgt id="50">2.82258e-06</wgt>
  <wgt id="51">2.81791e-06</wgt>
  <wgt id="52">2.7685e-06</wgt>
  <wgt id="53">2.84544e-06</wgt>
</rwgt>
</event>
<event>
 10      0 +2.8251000e-06 2.19909100e+02 7.54677100e-03 1.07463800e-01
        2 -1    0    0  501    0 +0.00000000000e+00 +0.00000000000e+00 +1.64888151750e+02  1.64888151750e+02  0.00000000000e+00 0.0000e+00 -1.0000e+00
        2 -1    0    0  502    0 +0.00000000000e+00 +0.00000000000e+00 -1.29911292770e+03  1.29911292770e+03  0.00000000000e+00 0.0000e+00 -1.0000e+00
       24  2    1    2    0    0 -5.65474519394e+01 -1.33693423138e+01 -2.77171337663e+01  1.02500993311e+02  7.97612718735e+01 0.0000e+00 0.0000e+00
        2  1    3    3  503    0 -6.41459356270e+01 -3.54389721486e+01 -2.97038249325e+01  7.90755273143e+01  0.00000000000e+00 0.0000e+00 -1.0000e+00
       -1  1    3    3    0  503 +7.59848368755e+00 +2.20696298348e+01 +1.98669116613e+00  2.34254659972e+01  0.00000000000e+00 0.0000e+00 1.0000e+00
       24  2    1    2    0    0 +2.00451866314e+02 +6.31753189679e+01 -1.13300913235e+03  1.15510300480e+03  7.98823263590e+01 0.0000e+00 0.0000e+00
        2  1    6    6  504    0 +1.73050494092e+02 +7.50326206235e+01 -8.58553169629e+02  8.79027822507e+02  0.00000000000e+00 0.0000e+00 -1.0000e+00
       -1  1    6    6    0  504 +2.74013722224e+01 -1.18573016556e+01 -2.74455962723e+02  2.76075182290e+02  0.00000000000e+00 0.0000e+00 1.0000e+00
        1  1    1    2  501    0 -1.61544827435e+02 -1.12365569770e+01 +2.58118432644e+01  1.63979397293e+02  0.00000000000e+00 0.0000e+00 -1.0000e+00
        1  1    1    2  502    0 +1.76404130607e+01 -3.85694196772e+01 +6.89646903338e-01  4.24176840485e+01  0.00000000000e+00 0.0000e+00 -1.0000e+00
#  0.1300000e+05  0.1300000e+05  0.1300000e+05  0.1300000e+05
<mgrwt>
<rscale>  2 0.19726120e+03</rscale>
<asrwt>0</asrwt>
<pdfrwt beam="1">  1        2 0.25367408e-01 0.14237604e+03</pdfrwt>
<pdfrwt beam="2">  1        2 0.19986353e+00 0.21990912e+03</pdfrwt>
<totfact> 0.67925587e+00</totfact>
</mgrwt>
<clustering>
<clus scale="   41.994">  3  6 -1 -1</clus>
<clus scale="  142.376">  1  3  2 -1</clus>
<clus scale="  204.677">  1  5  2 -1</clus>
<clus scale="  219.909">  1  3  2 -1</clus>
</clustering>
<rwgt>
  <wgt id="1">4.52546e-06</wgt>
  <wgt id="2">2.9656e-06</wgt>
  <wgt id="3">2.0979e-06</wgt>
  <wgt id="4">4.31106e-06</wgt>
  <wgt id="5">2.8251e-06</wgt>
  <wgt id="6">1.99851e-06</wgt>
  <wgt id="7">4.07654e-06</wgt>
  <wgt id="8">2.67142e-06</wgt>
  <wgt id="9">1.8898e-06</wgt>
  <wgt id="10">2.8251e-06</wgt>
  <wgt id="11">2.8251e-06</wgt>
  <wgt id="12">2.8251e-06</wgt>
  <wgt id="13">2.8251e-06</wgt>
  <wgt id="14">2.82868e-06</wgt>
  <wgt id="15">2.82211e-06</wgt>
  <wgt id="16">2.8235e-06</wgt>
  <wgt id="17">2.82669e-06</wgt>
  <wgt id="18">2.81384e-06</wgt>
  <wgt id="19">2.84174e-06</wgt>
  <wgt id="20">2.81889e-06</wgt>
  <wgt id="21">2.82927e-06</wgt>
  <wgt id="22">2.83098e-06</wgt>
  <wgt id="23">2.81664e-06</wgt>
  <wgt id="24">2.85776e-06</wgt>
  <wgt id="25">2.80488e-06</wgt>
  <wgt id="26">2.82513e-06</wgt>
  <wgt id="27">2.82505e-06</wgt>
  <wgt id="28">2.85665e-06</wgt>
  <wgt id="29">2.81356e-06</wgt>
  <wgt id="30">2.83378e-06</wgt>
  <wgt id="31">2.81354e-06</wgt>
  <wgt id="32">2.82875e-06</wgt>
  <wgt id="33">2.82158e-06</wgt>
  <wgt id="34">2.79234e-06</wgt>
  <wgt id="35">2.88469e-06</wgt>
  <wgt id="36">2.83265e-06</wgt>
  <wgt id="37">2.82068e-06</wgt>
  <wgt id="38">2.818e-06</wgt>
  <wgt id="39">2.82866e-06</wgt>
  <wgt id="40">2.82716e-06</wgt>
  <wgt id="41">2.82356e-06</wgt>
  <wgt id="42">2.84332e-06</wgt>
  <wgt id="43">2.79065e-06</wgt>
  <wgt id="44">2.83196e-06</wgt>
  <wgt id="45">2.82252e-06</wgt>
  <wgt id="46">2.8213e-06</wgt>
  <wgt id="47">2.82774e-06</wgt>
  <wgt id="48">2.80543e-06</wgt>
  <wgt id="49">2.83634e-06</wgt>
  <wgt id="50">2.81454e-06</wgt>
  <wgt id="51">2.83236e-06</wgt>
  <wgt id="52">2.83028e-06</wgt>
  <wgt id="53">2.82366e-06</wgt>
</rwgt>
</event>
<event>
 12      0 +2.8251000e-06 1.25657000e+03 7.54677100e-03 8.94016900e-02
        2 -1    0    0  504    0 +0.00000000000e+00 +0.00000000000e+00 +2.47780957400e+03  2.47780957400e+03  0.00000000000e+00 0.0000e+00 -1.0000e+00
        2 -1    0    0  503    0 +0.00000000000e+00 +0.00000000000e+00 -2.03315116290e+03  2.03315116290e+03  0.00000000000e+00 0.0000e+00 -1.0000e+00
       24  2    1    2    0    0 -4.52342008426e+02 -6.36188884526e+02 -4.14870849236e+02  8.87678690879e+02  8.06600726160e+01 0.0000e+00 0.0000e+00
        4  1    3    3  505    0 -3.11576712754e+02 -3.74699326586e+02 -2.72699640058e+02  5.58430592789e+02  0.00000000000e+00 0.0000e+00 -1.0000e+00
       -3  1    3    3    0  505 -1.40765295672e+02 -2.61489557940e+02 -1.42171209179e+02  3.29248098091e+02  0.00000000000e+00 0.0000e+00 1.0000e+00
       24  2    1    2    0    0 +3.23349618044e+01 +2.91803644151e+02 +3.18895882683e+02  4.41437711344e+02  8.35329426624e+01 0.0000e+00 0.0000e+00
        2  1    6    6  506    0 -2.03362682970e+01 +2.68963890288e+01 +2.30504630878e+01  4.08448699300e+01  0.00000000000e+00 0.0000e+00 -1.0000e+00
       -1  1    6    6    0  506 +5.26712301014e+01 +2.64907255123e+02 +2.95845419595e+02  4.00592841414e+02  0.00000000000e+00 0.0000e+00 1.0000e+00
       21  1    1    2  503  502 -3.92273910301e+01 -5.01948842871e+01 -3.27609564830e-01  6.37057449815e+01  0.00000000000e+00 0.0000e+00 -1.0000e+00
       21  1    1    2  504  501 +3.91493967193e+02 -5.30548413461e+02 +6.38047296966e+02  9.17525748162e+02  0.00000000000e+00 0.0000e+00 -1.0000e+00
        1  1    1    2  501    0 -7.15007440074e+00 -5.96815146771e+01 -9.15784037129e+02  9.17754547479e+02  0.00000000000e+00 0.0000e+00 -1.0000e+00
        1  1    1    2  502    0 +7.48905448593e+01 +9.84810052799e+02 +8.18697727381e+02  1.28285829405e+03  0.00000000000e+00 0.0000e+00 -1.0000e+00
#  0.1300000e+05  0.1300000e+05  0.6364206e+02  0.5892116e+03  0.1300000e+05  0.1300000e+05
<mgrwt>
<rscale>  3 0.86882882e+03</rscale>
<asrwt>  1 0.63642056e+02</asrwt>
<pdfrwt beam="1">  1        2 0.38120147e+00 0.28719526e+03</pdfrwt>
<pdfrwt beam="2">  2        2        2 0.31279249e+00 0.30387621e+00 0.63642056e+02 0.12565696e+04</pdfrwt>
<totfact> 0.37190379e-04</totfact>
</mgrwt>
<clustering>
<clus scale="   60.108">  3  7 -1 -1</clus>
<clus scale="   63.642">  2  5  1 -1</clus>
<clus scale="  287.195">  1  4  2 -1</clus>
<clus scale="  589.212">  1  6  2 -1</clus>
<clus scale="  886.247">  1  8  2 -1</clus>
<clus scale=" 1256.570">  1  3  2 -1</clus>
</clustering>
<rwgt>
  <wgt id="1">6.35273e-06</wgt>
  <wgt id="2">3.80407e-06</wgt>
  <wgt id="3">2.46077e-06</wgt>
  <wgt id="4">4.71787e-06</wgt>
  <wgt id="5">2.8251e-06</wgt>
  <wgt id="6">1.82749e-06</wgt>
  <wgt id="7">3.65284e-06</wgt>
  <wgt id="8">2.18735e-06</wgt>
  <wgt id="9">1.41495e-06</wgt>
  <wgt id="10">3.65787e-06</wgt>
  <wgt id="11">2.8251e-06</wgt>
  <wgt id="12">2.30596e-06</wgt>
  <wgt id="13">2.8251e-06</wgt>
  <wgt id="14">2.82857e-06</wgt>
  <wgt id="15">2.82228e-06</wgt>
  <wgt id="16">2.79721e-06</wgt>
  <wgt id="17">2.85641e-06</wgt>
  <wgt id="18">2.80808e-06</wgt>
  <wgt id="19">2.85032e-06</wgt>
  <wgt id="20">2.82129e-06</wgt>
  <wgt id="21">2.8277e-06</wgt>
  <wgt id="22">2.83591e-06</wgt>
  <wgt id="23">2.80973e-06</wgt>
  <wgt id="24">2.88298e-06</wgt>
  <wgt id="25">2.78975e-06</wgt>
  <wgt id="26">2.82646e-06</wgt>
  <wgt id="27">2.8234e-06</wgt>
  <wgt id="28">2.85991e-06</wgt>
  <wgt id="29">2.81221e-06</wgt>
  <wgt id="30">2.82909e-06</wgt>
  <wgt id="31">2.82008e-06</wgt>
  <wgt id="32">2.81667e-06</wgt>
  <wgt id="33">2.83327e-06</wgt>
  <wgt id="34">2.77636e-06</wgt>
  <wgt id="35">2.91572e-06</wgt>
  <wgt id="36">2.83974e-06</wgt>
  <wgt id="37">2.81884e-06</wgt>
  <wgt id="38">2.81734e-06</wgt>
  <wgt id="39">2.83018e-06</wgt>
  <wgt id="40">2.84308e-06</wgt>
  <wgt id="41">2.80706e-06</wgt>
  <wgt id="42">2.84866e-06</wgt>
  <wgt id="43">2.78934e-06</wgt>
  <wgt id="44">2.83282e-06</wgt>
  <wgt id="45">2.82235e-06</wgt>
  <wgt id="46">2.82245e-06</wgt>
  <wgt id="47">2.8266e-06</wgt>
  <wgt id="48">2.84385e-06</wgt>
  <wgt id="49">2.82498e-06</wgt>
  <wgt id="50">2.81959e-06</wgt>
  <wgt id="51">2.83637e-06</wgt>
  <wgt id="52">2.84567e-06</wgt>
  <wgt id="53">2.82042e-06</wgt>
</rwgt>
</event>
<event>
 10      0 +2.8251000e-06 5.50488800e+02 7.54677100e-03 9.45468500e-02
       -1 -1    0    0    0  501 +0.00000000000e+00 +0.00000000000e+00 +9.57178066140e+01  9.57178066140e+01  0.00000000000e+00 0.0000e+00 1.0000e+00
       -3 -1    0    0    0  502 +0.00000000000e+00 +0.00000000000e+00 -2.94588127980e+03  2.94588127980e+03  0.00000000000e+00 0.0000e+00 1.0000e+00
       24  2    1    2    0    0 -3.71630650713e+02 +4.09246003178e+01 -8.59823661894e+02  9.41284531711e+02  8.32807098092e+01 0.0000e+00 0.0000e+00
       14  1    3    3    0    0 -2.61765088140e+01 -1.29986895271e+01 -1.12195464012e+02  1.15939629498e+02  0.00000000000e+00 0.0000e+00 -1.0000e+00
      -13  1    3    3    0    0 -3.45454141899e+02 +5.39232898449e+01 -7.47628197881e+02  8.25344902214e+02  0.00000000000e+00 0.0000e+00 1.0000e+00
       24  2    1    2    0    0 +2.66618110563e+02 -2.18747649132e+01 -7.79109459782e+02  8.27725408558e+02  8.09572691717e+01 0.0000e+00 0.0000e+00
        2  1    6    6  503    0 +1.68064592716e+02 -2.96821967542e+01 -5.91927608919e+02  6.16039799306e+02  0.00000000000e+00 0.0000e+00 -1.0000e+00
       -1  1    6    6    0  503 +9.85535178477e+01 +7.80743184095e+00 -1.87181850863e+02  2.11685609252e+02  0.00000000000e+00 0.0000e+00 1.0000e+00
       -2  1    1    2    0  502 -1.55602011668e-03 +1.67231918859e+02 -3.97853510642e+02  4.31571466409e+02  0.00000000000e+00 0.0000e+00 1.0000e+00
       -4  1    1    2    0  501 +1.05014096170e+02 -1.86281754264e+02 -8.13376840869e+02  8.41017679735e+02  0.00000000000e+00 0.0000e+00 1.0000e+00
#  0.1300000e+05  0.1300000e+05  0.1300000e+05  0.1300000e+05
<mgrwt>
<rscale>  2 0.53703628e+03</rscale>
<asrwt>0</asrwt>
<pdfrwt beam="1">  1       -1 0.14725816e-01 0.55048876e+03</pdfrwt>
<pdfrwt beam="2">  1       -3 0.45321250e+00 0.49861935e+03</pdfrwt>
<totfact> 0.32701304e-03</totfact>
</mgrwt>
<clustering>
<clus scale="  167.915">  3  5 -1 -1</clus>
<clus scale="  213.818">  4  6 -1 -1</clus>
<clus scale="  498.619">  2  4  1 -1</clus>
<clus scale="  550.489">  1  3  2 -1</clus>
</clustering>
<rwgt>
  <wgt id="1">4.72347e-06</wgt>
  <wgt id="2">3.28101e-06</wgt>
  <wgt id="3">2.41515e-06</wgt>
  <wgt id="4">4.06712e-06</wgt>
  <wgt id="5">2.8251e-06</wgt>
  <wgt id="6">2.07956e-06</wgt>
  <wgt id="7">3.51986e-06</wgt>
  <wgt id="8">2.44496e-06</wgt>
  <wgt id="9">1.79973e-06</wgt>
  <wgt id="10">2.8251e-06</wgt>
  <wgt id="11">2.8251e-06</wgt>
  <wgt id="12">2.8251e-06</wgt>
  <wgt id="13">2.8251e-06</wgt>
  <wgt id="14">2.83961e-06</wgt>
  <wgt id="15">2.81318e-06</wgt>
  <wgt id="16">2.81865e-06</wgt>
  <wgt id="17">2.83214e-06</wgt>
  <wgt id="18">2.84515e-06</wgt>
  <wgt id="19">2.79522e-06</wgt>
  <wgt id="20">2.81666e-06</wgt>
  <wgt id="21">2.83075e-06</wgt>
  <wgt id="22">2.84885e-06</wgt>
  <wgt id="23">2.79143e-06</wgt>
  <wgt id="24">2.78607e-06</wgt>
  <wgt id="25">2.84914e-06</wgt>
  <wgt id="26">2.82991e-06</wgt>
  <wgt id="27">2.81849e-06</wgt>
  <wgt id="28">2.81762e-06</wgt>
  <wgt id="29">2.82788e-06</wgt>
  <wgt id="30">2.7188e-06</wgt>
  <wgt id="31">2.96372e-06</wgt>
  <wgt id="32">2.82985e-06</wgt>
  <wgt id="33">2.82099e-06</wgt>
  <wgt id="34">3.11516e-06</wgt>
  <wgt id="35">2.4027e-06</wgt>
  <wgt id="36">2.64616e-06</wgt>
  <wgt id="37">2.94658e-06</wgt>
  <wgt id="38">2.68815e-06</wgt>
  <wgt id="39">2.89242e-06</wgt>
  <wgt id="40">2.77429e-06</wgt>
  <wgt id="41">2.88621e-06</wgt>
  <wgt id="42">2.71667e-06</wgt>
  <wgt id="43">2.99426e-06</wgt>
  <wgt id="44">2.95131e-06</wgt>
  <wgt id="45">2.78816e-06</wgt>
  <wgt id="46">2.63718e-06</wgt>
  <wgt id="47">3.00965e-06</wgt>
  <wgt id="48">2.89276e-06</wgt>
  <wgt id="49">2.78678e-06</wgt>
  <wgt id="50">2.57005e-06</wgt>
  <wgt id="51">3.22174e-06</wgt>
  <wgt id="52">2.82273e-06</wgt>
  <wgt id="53">1.4606e-06</wgt>
</rwgt>
</event>
<event>
 11      0 +2.8251000e-06 4.55839600e+02 7.54677100e-03 9.80449400e-02
        4 -1    0    0  503    0 +0.00000000000e+00 +0.00000000000e+00 +1.14268158640e+03  1.14268158640e+03  0.00000000000e+00 0.0000e+00 -1.0000e+00
       -1 -1    0    0    0  501 +0.00000000000e+00 +0.00000000000e+00 -8.91075348080e+02  8.91075348080e+02  0.00000000000e+00 0.0000e+00 1.0000e+00
       24  2    1    2    0    0 +2.81465476092e+02 -2.70468349423e+02 +5.22660404587e+02  6.57207089201e+02  7.98205318285e+01 0.0000e+00 0.0000e+00
        4  1    3    3  504    0 +2.81457179228e+02 -2.58278591910e+02 +5.19099680572e+02  6.44507915504e+02  0.00000000000e+00 0.0000e+00 -1.0000e+00
       -3  1    3    3    0  504 +8.29686403069e-03 -1.21897575129e+01 +3.56072401542e+00  1.26991736966e+01  0.00000000000e+00 0.0000e+00 1.0000e+00
       24  2    1    2    0    0 +2.04380491653e+01 +2.54481820225e+02 -6.57616227353e+02  7.10121442154e+02  8.14533575124e+01 0.0000e+00 0.0000e+00
       14  1    6    6    0    0 +1.68581439834e+01 +5.25362594748e+00 -6.17111747861e+01  6.41877456968e+01  0.00000000000e+00 0.0000e+00 -1.0000e+00
      -13  1    6    6    0    0 +3.57990518188e+00 +2.49228194278e+02 -5.95905052567e+02  6.45933696457e+02  0.00000000000e+00 0.0000e+00 1.0000e+00
       21  1    1    2  503  501 -2.96182637583e+01 -2.96789984346e+01 +8.81751597310e+01  9.76367927050e+01  0.00000000000e+00 0.0000e+00 -1.0000e+00
        3  1    1    2  502    0 +7.23848025572e+01 -8.77178899836e+01 +5.55273245376e+01  1.26559360123e+02  0.00000000000e+00 0.0000e+00 -1.0000e+00
       -2  1    1    2    0  502 -3.44670064056e+02 +1.33383417616e+02 +2.42859576817e+02  4.42232250297e+02  0.00000000000e+00 0.0000e+00 1.0000e+00
#  0.1300000e+05  0.1300000e+05  0.4192952e+02  0.1300000e+05  0.1300000e+05
<mgrwt>
<rscale>  2 0.39874182e+03</rscale>
<asrwt>  1 0.41929518e+02</asrwt>
<pdfrwt beam="1">  2        4        4 0.17579717e+00 0.16057061e+00 0.41929518e+02 0.45583959e+03</pdfrwt>
<pdfrwt beam="2">  1       -1 0.13708852e+00 0.26688922e+03</pdfrwt>
<totfact> 0.48894971e-04</totfact>
</mgrwt>
<clustering>
<clus scale="   41.930">  1  5  2 -1</clus>
<clus scale="  113.591">  3  6 -1 -1</clus>
<clus scale="  266.889">  2  4  1 -1</clus>
<clus scale="  425.803">  2  7  1 -1</clus>
<clus scale="  455.840">  1  3  2 -1</clus>
</clustering>
<rwgt>
  <wgt id="1">4.75503e-06</wgt>
  <wgt id="2">3.2521e-06</wgt>
  <wgt id="3">2.36812e-06</wgt>
  <wgt id="4">4.13069e-06</wgt>
  <wgt id="5">2.8251e-06</wgt>
  <wgt id="6">2.05718e-06</wgt>
  <wgt id="7">3.58947e-06</wgt>
  <wgt id="8">2.45495e-06</wgt>
  <wgt id="9">1.78764e-06</wgt>
  <wgt id="10">3.74413e-06</wgt>
  <wgt id="11">2.8251e-06</wgt>
  <wgt id="12">2.27412e-06</wgt>
  <wgt id="13">2.8251e-06</wgt>
  <wgt id="14">2.83665e-06</wgt>
  <wgt id="15">2.81558e-06</wgt>
  <wgt id="16">2.84388e-06</wgt>
  <wgt id="17">2.80441e-06</wgt>
  <wgt id="18">2.81749e-06</wgt>
  <wgt id="19">2.83658e-06</wgt>
  <wgt id="20">2.86193e-06</wgt>
  <wgt id="21">2.80039e-06</wgt>
  <wgt id="22">2.83058e-06</wgt>
  <wgt id="23">2.81734e-06</wgt>
  <wgt id="24">2.84897e-06</wgt>
  <wgt id="25">2.81011e-06</wgt>
  <wgt id="26">2.83071e-06</wgt>
  <wgt id="27">2.8175e-06</wgt>
  <wgt id="28">2.83206e-06</wgt>
  <wgt id="29">2.82281e-06</wgt>
  <wgt id="30">2.73869e-06</wgt>
  <wgt id="31">2.93663e-06</wgt>
  <wgt id="32">2.84853e-06</wgt>
  <wgt id="33">2.80282e-06</wgt>
  <wgt id="34">2.94857e-06</wgt>
  <wgt id="35">2.62114e-06</wgt>
  <wgt id="36">2.70359e-06</wgt>
  <wgt id="37">2.89905e-06</wgt>
  <wgt id="38">2.88404e-06</wgt>
  <wgt id="39">2.79869e-06</wgt>
  <wgt id="40">2.79681e-06</wgt>
  <wgt id="41">2.85952e-06</wgt>
  <wgt id="42">2.78784e-06</wgt>
  <wgt id="43">2.87539e-06</wgt>
  <wgt id="44">2.84591e-06</wgt>
  <wgt id="45">2.81629e-06</wgt>
  <wgt id="46">2.87057e-06</wgt>
  <wgt id="47">2.79714e-06</wgt>
  <wgt id="48">2.85884e-06</wgt>
  <wgt id="49">2.80527e-06</wgt>
  <wgt id="50">2.76729e-06</wgt>
  <wgt id="51">2.93406e-06</wgt>
  <wgt id="52">2.79691e-06</wgt>
  <wgt id="53">2.83313e-06</wgt>
</rwgt>
</event>
<event>
 11      0 +2.8251000e-06 1.75177500e+02 7.54677100e-03 1.09474500e-01
        4 -1    0    0  503    0 +0.00000000000e+00 +0.00000000000e+00 +9.30768114770e+01  9.30768114770e+01  0.00000000000e+00 0.0000e+00 -1.0000e+00
        2 -1    0    0  502    0 +0.00000000000e+00 +0.00000000000e+00 -2.30680588520e+03  2.30680588520e+03  0.00000000000e+00 0.0000e+00 -1.0000e+00
       24  2    1    2    0    0 +1.17531775933e+01 +7.47691455286e+00 -3.74950378689e+02  3.84035899253e+02  8.18641802062e+01 0.0000e+00 0.0000e+00
       12  1    3    3    0    0 -7.84641712117e+00 -3.48903295404e+01 -1.85065146274e+02  1.88488752244e+02  0.00000000000e+00 0.0000e+00 -1.0000e+00
      -11  1    3    3    0    0 +1.95995947145e+01 +4.23672440932e+01 -1.89885232416e+02  1.95547147009e+02  0.00000000000e+00 0.0000e+00 1.0000e+00
       24  2    1    2    0    0 +1.85987185350e+02 -1.12484500280e+02 -1.63455441826e+02  2.84806748977e+02  8.45766331961e+01 0.0000e+00 0.0000e+00
       16  1    6    6    0    0 +1.00206851041e+02 -1.17304668414e+01 -7.24159073496e+01  1.24189695568e+02  0.00000000000e+00 0.0000e+00 -1.0000e+00
      -15  1    6    6    0    0 +8.57803343088e+01 -1.00754033439e+02 -9.10395344761e+01  1.60617053410e+02  1.77700000000e+00 0.0000e+00 1.0000e+00
       21  1    1    2  503  501 -7.88692175987e+01 +3.52723820990e+01 -1.30600470536e+02  1.56591753703e+02  0.00000000000e+00 0.0000e+00 1.0000e+00
        1  1    1    2  501    0 -1.60549912346e+02 +8.07489211743e+01 -1.50542968370e+03  1.51611846344e+03  0.00000000000e+00 0.0000e+00 -1.0000e+00
        3  1    1    2  502    0 +4.16787670016e+01 -1.10137175458e+01 -3.92930989742e+01  5.83298313039e+01  0.00000000000e+00 0.0000e+00 -1.0000e+00
#  0.1300000e+05  0.1300000e+05  0.8660658e+02  0.1300000e+05  0.1300000e+05
<mgrwt>
<rscale>  2 0.17250544e+03</rscale>
<asrwt>  1 0.86606580e+02</asrwt>
<pdfrwt beam="1">  1        2 0.35489321e+00 0.16473127e+03</pdfrwt>
<pdfrwt beam="2">  2        4        4 0.14319509e-01 0.11424617e-01 0.86606580e+02 0.17517752e+03</pdfrwt>
<totfact> 0.20488228e-01</totfact>
</mgrwt>
<clustering>
<clus scale="   55.437">  3  7 -1 -1</clus>
<clus scale="   86.607">  1  5  2 -1</clus>
<clus scale="  164.731">  2  4  1 -1</clus>
<clus scale="   77.710">  2  6  1 -1</clus>
<clus scale="  175.178">  2  3  1 -1</clus>
</clustering>
<rwgt>
  <wgt id="1">4.41345e-06</wgt>
  <wgt id="2">2.86563e-06</wgt>
  <wgt id="3">2.0147e-06</wgt>
  <wgt id="4">4.35103e-06</wgt>
  <wgt id="5">2.8251e-06</wgt>
  <wgt id="6">1.9862e-06</wgt>
  <wgt id="7">4.16709e-06</wgt>
  <wgt id="8">2.70567e-06</wgt>
  <wgt id="9">1.90224e-06</wgt>
  <wgt id="10">3.60388e-06</wgt>
  <wgt id="11">2.8251e-06</wgt>
  <wgt id="12">2.32715e-06</wgt>
  <wgt id="13">2.8251e-06</wgt>
  <wgt id="14">2.83166e-06</wgt>
  <wgt id="15">2.81967e-06</wgt>
  <wgt id="16">2.81348e-06</wgt>
  <wgt id="17">2.83798e-06</wgt>
  <wgt id="18">2.81877e-06</wgt>
  <wgt id="19">2.83448e-06</wgt>
  <wgt id="20">2.82499e-06</wgt>
  <wgt id="21">2.82496e-06</wgt>
  <wgt id="22">2.82685e-06</wgt>
  <wgt id="23">2.82247e-06</wgt>
  <wgt id="24">2.83272e-06</wgt>
  <wgt id="25">2.82015e-06</wgt>
  <wgt id="26">2.83138e-06</wgt>
  <wgt id="27">2.81642e-06</wgt>
  <wgt id="28">2.83473e-06</wgt>
  <wgt id="29">2.82137e-06</wgt>
  <wgt id="30">2.83971e-06</wgt>
  <wgt id="31">2.80364e-06</wgt>
  <wgt id="32">2.8164e-06</wgt>
  <wgt id="33">2.83328e-06</wgt>
  <wgt id="34">2.7981e-06</wgt>
  <wgt id="35">2.87338e-06</wgt>
  <wgt id="36">2.83775e-06</wgt>
  <wgt id="37">2.81857e-06</wgt>
  <wgt id="38">2.82574e-06</wgt>
  <wgt id="39">2.82527e-06</wgt>
  <wgt id="40">2.8336e-06</wgt>
  <wgt id="41">2.81841e-06</wgt>
  <wgt id="42">2.82373e-06</wgt>
  <wgt id="43">2.83016e-06</wgt>
  <wgt id="44">2.82966e-06</wgt>
  <wgt id="45">2.82336e-06</wgt>
  <wgt id="46">2.8265e-06</wgt>
  <wgt id="47">2.82411e-06</wgt>
  <wgt id="48">2.82958e-06</wgt>
  <wgt id="49">2.82753e-06</wgt>
  <wgt id="50">2.83082e-06</wgt>
  <wgt id="51">2.80191e-06</wgt>
  <wgt id="52">2.83101e-06</wgt>
  <wgt id="53">2.82392e-06</wgt>
</rwgt>
</event>
<event>
 11      0 +2.8251000e-06 6.66188800e+02 7.54677100e-03 9.33280900e-02
        2 -1    0    0  503    0 +0.00000000000e+00 +0.00000000000e+00 +1.91194025950e+03  1.91194025950e+03  0.00000000000e+00 0.0000e+00 -1.0000e+00
        4 -1    0    0  501    0 +0.00000000000e+00 +0.00000000000e+00 -9.90930301020e+02  9.90930301020e+02  0.00000000000e+00 0.0000e+00 -1.0000e+00
       24  2    1    2    0    0 +1.78709100021e+02 +1.73012084710e+02 +1.34727663307e+03  1.37236296281e+03  7.97223417908e+01 0.0000e+00 0.0000e+00
       12  1    3    3    0    0 +1.80472968455e+02 +1.48028402939e+02 +1.26515512944e+03  1.28650705477e+03  0.00000000000e+00 0.0000e+00 -1.0000e+00
      -11  1    3    3    0    0 -1.76386843336e+00 +2.49836817709e+01 +8.21215036324e+01  8.58559080409e+01  0.00000000000e+00 0.0000e+00 1.0000e+00
       24  2    1    2    0    0 -2.45193218199e+02 -3.59329909761e+02 -5.20265627154e+02  6.83475614304e+02  8.49993779443e+01 0.0000e+00 0.0000e+00
        4  1    6    6  504    0 -2.09573490449e+02 -2.41628361771e+02 -3.62312227615e+02  4.83296454974e+02  0.00000000000e+00 0.0000e+00 -1.0000e+00
       -3  1    6    6    0  504 -3.56197277500e+01 -1.17701547990e+02 -1.57953399539e+02  2.00179159330e+02  0.00000000000e+00 0.0000e+00 1.0000e+00
       21  1    1    2  503  502 -6.60463488016e+01 +4.72674441187e+01 +5.03976114533e+01  9.55837366069e+01  0.00000000000e+00 0.0000e+00 -1.0000e+00
        1  1    1    2  501    0 -8.72382491897e+01 +1.00331993426e+02 +3.48850936114e+02  3.73328269294e+02  0.00000000000e+00 0.0000e+00 -1.0000e+00
        3  1    1    2  502    0 +2.19768716169e+02 +3.87183875072e+01 -3.05249595006e+02  3.78119977506e+02  0.00000000000e+00 0.0000e+00 -1.0000e+00
#  0.1300000e+05  0.1300000e+05  0.8118670e+02  0.1300000e+05  0.1300000e+05
<mgrwt>
<rscale>  2 0.59887330e+03</rscale>
<asrwt>  1 0.81186702e+02</asrwt>
<pdfrwt beam="1">  2        2        2 0.29414466e+00 0.27621654e+00 0.81186702e+02 0.66618876e+03</pdfrwt>
<pdfrwt beam="2">  1        4 0.15245082e+00 0.66618876e+03</pdfrwt>
<totfact> 0.14202706e-03</totfact>
</mgrwt>
<clustering>
<clus scale="   81.187">  1  5  2 -1</clus>
<clus scale="  148.431">  3  6 -1 -1</clus>
<clus scale="  222.533">  4  7 -1 -1</clus>
<clus scale="  435.059">  1  3  2 -1</clus>
<clus scale="  666.189">  1  3  2 -1</clus>
</clustering>
<rwgt>
  <wgt id="1">4.6763e-06</wgt>
  <wgt id="2">3.26568e-06</wgt>
  <wgt id="3">2.41302e-06</wgt>
  <wgt id="4">4.04541e-06</wgt>
  <wgt id="5">2.8251e-06</wgt>
  <wgt id="6">2.08748e-06</wgt>
  <wgt id="7">3.51239e-06</wgt>
  <wgt id="8">2.45287e-06</wgt>
  <wgt id="9">1.81243e-06</wgt>
  <wgt id="10">3.61474e-06</wgt>
  <wgt id="11">2.8251e-06</wgt>
  <wgt id="12">2.32293e-06</wgt>
  <wgt id="13">2.8251e-06</wgt>
  <wgt id="14">2.83501e-06</wgt>
  <wgt id="15">2.81669e-06</wgt>
  <wgt id="16">2.81227e-06</wgt>
  <wgt id="17">2.83923e-06</wgt>
  <wgt id="18">2.81819e-06</wgt>
  <wgt id="19">2.8351e-06</wgt>
  <wgt id="20">2.82545e-06</wgt>
  <wgt id="21">2.82474e-06</wgt>
  <wgt id="22">2.82568e-06</wgt>
  <wgt id="23">2.82377e-06</wgt>
  <wgt id="24">2.82688e-06</wgt>
  <wgt id="25">2.82363e-06</wgt>
  <wgt id="26">2.83004e-06</wgt>
  <wgt id="27">2.81823e-06</wgt>
  <wgt id="28">2.8423e-06</wgt>
  <wgt id="29">2.81866e-06</wgt>
  <wgt id="30">2.76644e-06</wgt>
  <wgt id="31">2.89938e-06</wgt>
  <wgt id="32">2.83026e-06</wgt>
  <wgt id="33">2.82026e-06</wgt>
  <wgt id="34">2.89245e-06</wgt>
  <wgt id="35">2.71249e-06</wgt>
  <wgt id="36">2.76452e-06</wgt>
  <wgt id="37">2.86513e-06</wgt>
  <wgt id="38">2.78242e-06</wgt>
  <wgt id="39">2.84615e-06</wgt>
  <wgt id="40">2.81481e-06</wgt>
  <wgt id="41">2.83986e-06</wgt>
  <wgt id="42">2.81217e-06</wgt>
  <wgt id="43">2.8499e-06</wgt>
  <wgt id="44">2.81243e-06</wgt>
  <wgt id="45">2.83017e-06</wgt>
  <wgt id="46">2.83247e-06</wgt>
  <wgt id="47">2.82046e-06</wgt>
  <wgt id="48">2.86048e-06</wgt>
  <wgt id="49">2.80982e-06</wgt>
  <wgt id="50">2.79096e-06</wgt>
  <wgt id="51">2.89666e-06</wgt>
  <wgt id="52">2.84432e-06</wgt>
  <wgt id="53">2.82032e-06</wgt>
</rwgt>
</event>
<event>
 11      0 +2.8251000e-06 4.48359900e+02 7.54677100e-03 9.80690500e-02
       21 -1    0    0  501  503 +0.00000000000e+00 +0.00000000000e+00 +2.31225207220e+02  2.31225207220e+02  0.00000000000e+00 0.0000e+00 1.0000e+00
        2 -1    0    0  502    0 +0.00000000000e+00 +0.00000000000e+00 -1.77567661880e+03  1.77567661880e+03  0.00000000000e+00 0.0000e+00 -1.0000e+00
       24  2    1    2    0    0 +1.30107104074e+02 -9.22981217785e+01 -2.22148458087e+02  2.85174167169e+02  8.07933560129e+01 0.0000e+00 0.0000e+00
       16  1    3    3    0    0 +1.33523338647e+02 -6.33968160796e+01 -1.99538475659e+02  2.48320843911e+02  0.00000000000e+00 0.0000e+00 -1.0000e+00
      -15  1    3    3    0    0 -3.41623457307e+00 -2.89013056989e+01 -2.26099824282e+01  3.68533232581e+01  1.77700000000e+00 0.0000e+00 1.0000e+00
       24  2    1    2    0    0 -1.60117834474e+02 +2.14309118819e+02 -9.52129519372e+02  9.92187325499e+02  7.94918102456e+01 0.0000e+00 0.0000e+00
        2  1    6    6  504    0 -1.50249082727e+02 +2.11845278846e+02 -9.43911889061e+02  9.78990737107e+02  0.00000000000e+00 0.0000e+00 -1.0000e+00
       -1  1    6    6    0  504 -9.86875174638e+00 +2.46383997385e+00 -8.21763031004e+00  1.31965883919e+01  0.00000000000e+00 0.0000e+00 1.0000e+00
        1  1    1    2  501    0 +1.38838670811e+02 +1.11474204473e+02 -2.29831816321e+02  2.90732417471e+02  0.00000000000e+00 0.0000e+00 -1.0000e+00
        3  1    1    2  502    0 +3.07196941613e+01 -5.14721153415e+01 -1.94180204083e+02  2.03221627601e+02  0.00000000000e+00 0.0000e+00 -1.0000e+00
       -4  1    1    2    0  503 -1.39547634572e+02 -1.82013086172e+02 +5.38385862821e+01  2.35586288280e+02  0.00000000000e+00 0.0000e+00 1.0000e+00
#  0.1300000e+05  0.1300000e+05  0.1300000e+05  0.1300000e+05  0.2293519e+03
<mgrwt>
<rscale>  2 0.39795450e+03</rscale>
<asrwt>  1 0.22935193e+03</asrwt>
<pdfrwt beam="1">  2       21        4 0.35573109e-01 0.11489131e-01 0.22935193e+03 0.44835995e+03</pdfrwt>
<pdfrwt beam="2">  1        2 0.27318102e+00 0.44835995e+03</pdfrwt>
<totfact> 0.10486498e+00</totfact>
</mgrwt>
<clustering>
<clus scale="   60.240">  3  6 -1 -1</clus>
<clus scale="  177.895">  4  5 -1 -1</clus>
<clus scale="  229.352">  1  7  2 -1</clus>
<clus scale="  278.262">  1  3  2 -1</clus>
<clus scale="  448.360">  1  3  2 -1</clus>
</clustering>
<rwgt>
  <wgt id="1">4.55177e-06</wgt>
  <wgt id="2">3.11278e-06</wgt>
  <wgt id="3">2.26649e-06</wgt>
  <wgt id="4">4.1311e-06</wgt>
  <wgt id="5">2.8251e-06</wgt>
  <wgt id="6">2.05703e-06</wgt>
  <wgt id="7">4.02808e-06</wgt>
  <wgt id="8">2.75465e-06</wgt>
  <wgt id="9">2.00573e-06</wgt>
  <wgt id="10">3.47249e-06</wgt>
  <wgt id="11">2.8251e-06</wgt>
  <wgt id="12">2.38402e-06</wgt>
  <wgt id="13">2.8251e-06</wgt>
  <wgt id="14">2.83217e-06</wgt>
  <wgt id="15">2.81919e-06</wgt>
  <wgt id="16">2.81419e-06</wgt>
  <wgt id="17">2.8373e-06</wgt>
  <wgt id="18">2.8179e-06</wgt>
  <wgt id="19">2.83568e-06</wgt>
  <wgt id="20">2.82403e-06</wgt>
  <wgt id="21">2.8258e-06</wgt>
  <wgt id="22">2.8286e-06</wgt>
  <wgt id="23">2.82009e-06</wgt>
  <wgt id="24">2.84286e-06</wgt>
  <wgt id="25">2.81395e-06</wgt>
  <wgt id="26">2.82764e-06</wgt>
  <wgt id="27">2.82158e-06</wgt>
  <wgt id="28">2.84712e-06</wgt>
  <wgt id="29">2.81698e-06</wgt>
  <wgt id="30">2.82559e-06</wgt>
  <wgt id="31">2.82364e-06</wgt>
  <wgt id="32">2.82216e-06</wgt>
  <wgt id="33">2.82769e-06</wgt>
  <wgt id="34">2.81091e-06</wgt>
  <wgt id="35">2.85195e-06</wgt>
  <wgt id="36">2.82668e-06</wgt>
  <wgt id="37">2.82525e-06</wgt>
  <wgt id="38">2.81724e-06</wgt>
  <wgt id="39">2.82937e-06</wgt>
  <wgt id="40">2.82596e-06</wgt>
  <wgt id="41">2.82326e-06</wgt>
  <wgt id="42">2.82685e-06</wgt>
  <wgt id="43">2.8231e-06</wgt>
  <wgt id="44">2.8265e-06</wgt>
  <wgt id="45">2.82461e-06</wgt>
  <wgt id="46">2.82572e-06</wgt>
  <wgt id="47">2.82466e-06</wgt>
  <wgt id="48">2.83127e-06</wgt>
  <wgt id="49">2.82579e-06</wgt>
  <wgt id="50">2.84394e-06</wgt>
  <wgt id="51">2.8037e-06</wgt>
  <wgt id="52">2.8348e-06</wgt>
  <wgt id="53">2.82275e-06</wgt>
</rwgt>
</event>
<event>
 12      0 +2.8251000e-06 3.10754500e+02 7.54677100e-03 1.01452600e-01
        2 -1    0    0  504    0 +0.00000000000e+00 +0.00000000000e+00 +4.34399270390e+03  4.34399270390e+03  0.00000000000e+00 0.0000e+00 -1.0000e+00
        2 -1    0    0  501    0 +0.00000000000e+00 +0.00000000000e+00 -1.23206950410e+03  1.23206950410e+03  0.00000000000e+00 0.0000e+00 -1.0000e+00
       24  2    1    2    0    0 -1.86662114907e+01 -2.48927880444e+01 -2.63813880694e+02  2.76542332131e+02  7.68753501829e+01 0.0000e+00 0.0000e+00
        2  1    3    3  505    0 -4.42366614455e+01 -1.49697864641e+01 -2.19606778043e+02  2.24517513092e+02  0.00000000000e+00 0.0000e+00 -1.0000e+00
       -1  1    3    3    0  505 +2.55704499549e+01 -9.92300158021e+00 -4.42071026503e+01  5.20248190385e+01  0.00000000000e+00 0.0000e+00 1.0000e+00
       24  2    1    2    0    0 +7.14208636865e+00 -4.60340425342e+01 +6.84899615987e+02  6.91028017085e+02  7.91333933790e+01 0.0000e+00 0.0000e+00
        4  1    6    6  506    0 +3.62696881920e+00 -5.78941533768e+01 +6.65479155409e+02  6.68002540550e+02  0.00000000000e+00 0.0000e+00 -1.0000e+00
       -3  1    6    6    0  506 +3.51511754945e+00 +1.18601108427e+01 +1.94204605784e+01  2.30254765350e+01  0.00000000000e+00 0.0000e+00 1.0000e+00
       21  1    1    2  503  502 +2.85380330109e+02 +1.39224168603e+02 -9.49117629259e+01  3.31411443191e+02  0.00000000000e+00 0.0000e+00 1.0000e+00
       21  1    1    2  504  503 +1.96249281093e+02 -6.10305864217e+01 -1.56485839960e+02  2.58314403230e+02  0.00000000000e+00 0.0000e+00 -1.0000e+00
        1  1    1    2  501    0 -7.80646388735e+02 -4.31753575460e+02 +3.27637326669e+03  3.39565041146e+03  0.00000000000e+00 0.0000e+00 -1.0000e+00
        1  1    1    2  502    0 +3.10540902655e+02 +4.24486823857e+02 -3.34138199302e+02  6.23115600898e+02  0.00000000000e+00 0.0000e+00 -1.0000e+00
#  0.1300000e+05  0.1300000e+05  0.3745099e+03  0.1744267e+03  0.1300000e+05  0.1300000e+05
<mgrwt>
<rscale>  2 0.30439695e+03</rscale>
<asrwt>  2 0.17442666e+03 0.37450992e+03</asrwt>
<pdfrwt beam="1">  1        2 0.66830657e+00 0.93157168e+02</pdfrwt>
<pdfrwt beam="2">  1        2 0.18954915e+00 0.85764517e+02</pdfrwt>
<totfact> 0.96451387e-05</totfact>
</mgrwt>
<clustering>
<clus scale="   85.765">  2  3  1 -1</clus>
<clus scale="   93.157">  1  4  2 -1</clus>
<clus scale="  174.427">  5  6 -1 -1</clus>
<clus scale="  374.510">  5  8 -1 -1</clus>
<clus scale="  909.365">  1  7  2 -1</clus>
<clus scale=" 1036.618">  1  3  2 -1</clus>
</clustering>
<rwgt>
  <wgt id="1">6.716e-06</wgt>
  <wgt id="2">4.52362e-06</wgt>
  <wgt id="3">3.25961e-06</wgt>
  <wgt id="4">4.19429e-06</wgt>
  <wgt id="5">2.8251e-06</wgt>
  <wgt id="6">2.0357e-06</wgt>
  <wgt id="7">2.85035e-06</wgt>
  <wgt id="8">1.91988e-06</wgt>
  <wgt id="9">1.38342e-06</wgt>
  <wgt id="10">4.24497e-06</wgt>
  <wgt id="11">2.8251e-06</wgt>
  <wgt id="12">2.0195e-06</wgt>
  <wgt id="13">2.8251e-06</wgt>
  <wgt id="14">2.82867e-06</wgt>
  <wgt id="15">2.82208e-06</wgt>
  <wgt id="16">2.79782e-06</wgt>
  <wgt id="17">2.85568e-06</wgt>
  <wgt id="18">2.80679e-06</wgt>
  <wgt id="19">2.85222e-06</wgt>
  <wgt id="20">2.81635e-06</wgt>
  <wgt id="21">2.83095e-06</wgt>
  <wgt id="22">2.83623e-06</wgt>
  <wgt id="23">2.80931e-06</wgt>
  <wgt id="24">2.88541e-06</wgt>
  <wgt id="25">2.78822e-06</wgt>
  <wgt id="26">2.82407e-06</wgt>
  <wgt id="27">2.82649e-06</wgt>
  <wgt id="28">2.81418e-06</wgt>
  <wgt id="29">2.8283e-06</wgt>
  <wgt id="30">2.82111e-06</wgt>
  <wgt id="31">2.83002e-06</wgt>
  <wgt id="32">2.80439e-06</wgt>
  <wgt id="33">2.84504e-06</wgt>
  <wgt id="34">2.78944e-06</wgt>
  <wgt id="35">2.88988e-06</wgt>
  <wgt id="36">2.86602e-06</wgt>
  <wgt id="37">2.80052e-06</wgt>
  <wgt id="38">2.81679e-06</wgt>
  <wgt id="39">2.82919e-06</wgt>
  <wgt id="40">2.85841e-06</wgt>
  <wgt id="41">2.79169e-06</wgt>
  <wgt id="42">2.8424e-06</wgt>
  <wgt id="43">2.79743e-06</wgt>
  <wgt id="44">2.83432e-06</wgt>
  <wgt id="45">2.82154e-06</wgt>
  <wgt id="46">2.82579e-06</wgt>
  <wgt id="47">2.82464e-06</wgt>
  <wgt id="48">2.81313e-06</wgt>
  <wgt id="49">2.8426e-06</wgt>
  <wgt id="50">2.80597e-06</wgt>
  <wgt id="51">2.85136e-06</wgt>
  <wgt id="52">2.82648e-06</wgt>
  <wgt id="53">2.82548e-06</wgt>
</rwgt>
</event>
<event>
 11      0 +2.8251000e-06 1.53126400e+02 7.54677100e-03 1.11741700e-01
        2 -1    0    0  503    0 +0.00000000000e+00 +0.00000000000e+00 +1.06159914960e+03  1.06159914960e+03  0.00000000000e+00 0.0000e+00 -1.0000e+00
        2 -1    0    0  502    0 +0.00000000000e+00 +0.00000000000e+00 -2.74342105870e+02  2.74342105870e+02  0.00000000000e+00 0.0000e+00 -1.0000e+00
       24  2    1    2    0    0 -6.09916855459e+01 -5.51633176522e+01 +6.26552944864e+02  6.37118068414e+02  8.11656519850e+01 0.0000e+00 0.0000e+00
        2  1    3    3  504    0 -4.32794893031e+01 -7.58046227839e+01 +4.37982041514e+02  4.46595704994e+02  0.00000000000e+00 0.0000e+00 -1.0000e+00
       -1  1    3    3    0  504 -1.77121962428e+01 +2.06413051317e+01 +1.88570903349e+02  1.90522363420e+02  0.00000000000e+00 0.0000e+00 1.0000e+00
       24  2    1    2    0    0 -1.61658894283e+01 +7.45271732572e+01 +9.12889280989e+01  1.43444258802e+02  8.01682696281e+01 0.0000e+00 0.0000e+00
        2  1    6    6  505    0 -1.46022568754e+01 +5.14969978610e+00 +6.87629832870e+01  7.04847017747e+01  0.00000000000e+00 0.0000e+00 -1.0000e+00
       -1  1    6    6    0  505 -1.56363255288e+00 +6.93774734711e+01 +2.25259448120e+01  7.29595570276e+01  0.00000000000e+00 0.0000e+00 1.0000e+00
       21  1    1    2  503  501 +4.01608914508e+01 +2.73666719278e+01 +4.42381200020e+01  6.57179062040e+01  0.00000000000e+00 0.0000e+00 -1.0000e+00
        1  1    1    2  501    0 +1.85311883531e+02 +1.04252670181e+02 -1.09133804141e+02  2.38996444794e+02  0.00000000000e+00 0.0000e+00 -1.0000e+00
        1  1    1    2  502    0 -1.48315200008e+02 -1.50983197714e+02 +1.34310854906e+02  2.50664577256e+02  0.00000000000e+00 0.0000e+00 -1.0000e+00
#  0.1300000e+05  0.1300000e+05  0.4859868e+02  0.1300000e+05  0.1300000e+05
<mgrwt>
<rscale>  2 0.14914121e+03</rscale>
<asrwt>  1 0.48598682e+02</asrwt>
<pdfrwt beam="1">  2        2        2 0.16332295e+00 0.14847105e+00 0.48598682e+02 0.15312639e+03</pdfrwt>
<pdfrwt beam="2">  1        2 0.42206478e-01 0.10640551e+03</pdfrwt>
<totfact> 0.82875157e-01</totfact>
</mgrwt>
<clustering>
<clus scale="   48.599">  1  5  2 -1</clus>
<clus scale="   95.753">  1  3  2 -1</clus>
<clus scale="  106.406">  2  4  1 -1</clus>
<clus scale="  220.362">  1  7  2 -1</clus>
<clus scale="  220.362">  1  3  2 -1</clus>
</clustering>
<rwgt>
  <wgt id="1">4.61782e-06</wgt>
  <wgt id="2">2.96643e-06</wgt>
  <wgt id="3">2.07121e-06</wgt>
  <wgt id="4">4.39781e-06</wgt>
  <wgt id="5">2.8251e-06</wgt>
  <wgt id="6">1.97253e-06</wgt>
  <wgt id="7">4.16636e-06</wgt>
  <wgt id="8">2.67642e-06</wgt>
  <wgt id="9">1.86872e-06</wgt>
  <wgt id="10">3.71179e-06</wgt>
  <wgt id="11">2.8251e-06</wgt>
  <wgt id="12">2.28584e-06</wgt>
  <wgt id="13">2.8251e-06</wgt>
  <wgt id="14">2.82823e-06</wgt>
  <wgt id="15">2.82243e-06</wgt>
  <wgt id="16">2.82329e-06</wgt>
  <wgt id="17">2.82692e-06</wgt>
  <wgt id="18">2.81317e-06</wgt>
  <wgt id="19">2.8427e-06</wgt>
  <wgt id="20">2.81479e-06</wgt>
  <wgt id="21">2.83197e-06</wgt>
  <wgt id="22">2.83125e-06</wgt>
  <wgt id="23">2.81637e-06</wgt>
  <wgt id="24">2.85969e-06</wgt>
  <wgt id="25">2.80371e-06</wgt>
  <wgt id="26">2.8241e-06</wgt>
  <wgt id="27">2.82649e-06</wgt>
  <wgt id="28">2.86312e-06</wgt>
  <wgt id="29">2.81122e-06</wgt>
  <wgt id="30">2.83134e-06</wgt>
  <wgt id="31">2.81693e-06</wgt>
  <wgt id="32">2.8299e-06</wgt>
  <wgt id="33">2.82044e-06</wgt>
  <wgt id="34">2.79231e-06</wgt>
  <wgt id="35">2.88498e-06</wgt>
  <wgt id="36">2.83692e-06</wgt>
  <wgt id="37">2.81884e-06</wgt>
  <wgt id="38">2.81618e-06</wgt>
  <wgt id="39">2.82941e-06</wgt>
  <wgt id="40">2.82586e-06</wgt>
  <wgt id="41">2.82474e-06</wgt>
  <wgt id="42">2.84567e-06</wgt>
  <wgt id="43">2.78706e-06</wgt>
  <wgt id="44">2.83423e-06</wgt>
  <wgt id="45">2.82152e-06</wgt>
  <wgt id="46">2.82378e-06</wgt>
  <wgt id="47">2.82631e-06</wgt>
  <wgt id="48">2.79977e-06</wgt>
  <wgt id="49">2.83853e-06</wgt>
  <wgt id="50">2.8144e-06</wgt>
  <wgt id="51">2.83628e-06</wgt>
  <wgt id="52">2.82907e-06</wgt>
  <wgt id="53">2.82386e-06</wgt>
</rwgt>
</event>
<event>
 10      0 +2.8251000e-06 1.46353200e+02 7.54677100e-03 1.13142100e-01
        2 -1    0    0  502    0 +0.00000000000e+00 +0.00000000000e+00 +1.27977422670e+03  1.27977422670e+03  0.00000000000e+00 0.0000e+00 -1.0000e+00
        2 -1    0    0  501    0 +0.00000000000e+00 +0.00000000000e+00 -3.94180159990e+03  3.94180159990e+03  0.00000000000e+00 0.0000e+00 -1.0000e+00
       24  2    1    2    0    0 -2.53954317817e+01 -1.66800519133e+01 -1.64995107067e+03  1.65279996828e+03  9.21197451587e+01 0.0000e+00 0.0000e+00
        2  1    3    3  503    0 -2.53251005661e+01 -1.18310472750e+01 -1.64675448469e+03  1.64699170224e+03  0.00000000000e+00 0.0000e+00 -1.0000e+00
       -1  1    3    3    0  503 -7.03312155316e-02 -4.84900463832e+00 -3.19658598206e+00  5.80826604100e+00  0.00000000000e+00 0.0000e+00 1.0000e+00
       24  2    1    2    0    0 -2.32042861901e+00 +7.54724900465e+01 +9.24060473539e+02  9.30625834834e+02  8.04686557569e+01 0.0000e+00 0.0000e+00
        2  1    6    6  504    0 -3.62797944916e+01 +6.37457725405e+01 +5.56252141523e+02  5.61067012000e+02  0.00000000000e+00 0.0000e+00 -1.0000e+00
       -1  1    6    6    0  504 +3.39593658726e+01 +1.17267175060e+01 +3.67808332016e+02  3.69558822834e+02  0.00000000000e+00 0.0000e+00 1.0000e+00
        1  1    1    2  501    0 +4.73574090090e+01 +1.14597088135e+02 +3.36605949556e+02  3.58718248872e+02  0.00000000000e+00 0.0000e+00 -1.0000e+00
        1  1    1    2  502    0 -1.96415486083e+01 -1.73389526269e+02 -2.27274272563e+03  2.27943177462e+03  0.00000000000e+00 0.0000e+00 -1.0000e+00
#  0.1300000e+05  0.1300000e+05  0.1300000e+05  0.1300000e+05
<mgrwt>
<rscale>  2 0.13673590e+03</rscale>
<asrwt>0</asrwt>
<pdfrwt beam="1">  1        2 0.19688834e+00 0.11028688e+03</pdfrwt>
<pdfrwt beam="2">  1        2 0.60643102e+00 0.84032122e+02</pdfrwt>
<totfact> 0.22573332e-02</totfact>
</mgrwt>
<clustering>
<clus scale="   84.032">  2  3  1 -1</clus>
<clus scale="  110.287">  1  4  2 -1</clus>
<clus scale="  194.214">  2  6  1 -1</clus>
<clus scale="  194.214">  1  3  2 -1</clus>
</clustering>
<rwgt>
  <wgt id="1">6.86533e-06</wgt>
  <wgt id="2">4.38147e-06</wgt>
  <wgt id="3">3.04626e-06</wgt>
  <wgt id="4">4.42665e-06</wgt>
  <wgt id="5">2.8251e-06</wgt>
  <wgt id="6">1.96417e-06</wgt>
  <wgt id="7">3.08772e-06</wgt>
  <wgt id="8">1.97059e-06</wgt>
  <wgt id="9">1.37007e-06</wgt>
  <wgt id="10">2.8251e-06</wgt>
  <wgt id="11">2.8251e-06</wgt>
  <wgt id="12">2.8251e-06</wgt>
  <wgt id="13">2.8251e-06</wgt>
  <wgt id="14">2.8287e-06</wgt>
  <wgt id="15">2.82215e-06</wgt>
  <wgt id="16">2.79835e-06</wgt>
  <wgt id="17">2.85518e-06</wgt>
  <wgt id="18">2.80732e-06</wgt>
  <wgt id="19">2.85159e-06</wgt>
  <wgt id="20">2.81688e-06</wgt>
  <wgt id="21">2.83059e-06</wgt>
  <wgt id="22">2.83596e-06</wgt>
  <wgt id="23">2.80967e-06</wgt>
  <wgt id="24">2.88397e-06</wgt>
  <wgt id="25">2.7891e-06</wgt>
  <wgt id="26">2.82467e-06</wgt>
  <wgt id="27">2.82572e-06</wgt>
  <wgt id="28">2.83017e-06</wgt>
  <wgt id="29">2.82267e-06</wgt>
  <wgt id="30">2.82399e-06</wgt>
  <wgt id="31">2.82648e-06</wgt>
  <wgt id="32">2.80897e-06</wgt>
  <wgt id="33">2.84063e-06</wgt>
  <wgt id="34">2.78554e-06</wgt>
  <wgt id="35">2.89766e-06</wgt>
  <wgt id="36">2.86133e-06</wgt>
  <wgt id="37">2.80358e-06</wgt>
  <wgt id="38">2.81417e-06</wgt>
  <wgt id="39">2.83066e-06</wgt>
  <wgt id="40">2.85251e-06</wgt>
  <wgt id="41">2.7977e-06</wgt>
  <wgt id="42">2.84508e-06</wgt>
  <wgt id="43">2.79367e-06</wgt>
  <wgt id="44">2.83429e-06</wgt>
  <wgt id="45">2.82158e-06</wgt>
  <wgt id="46">2.82503e-06</wgt>
  <wgt id="47">2.82514e-06</wgt>
  <wgt id="48">2.82408e-06</wgt>
  <wgt id="49">2.83581e-06</wgt>
  <wgt id="50">2.81096e-06</wgt>
  <wgt id="51">2.84574e-06</wgt>
  <wgt id="52">2.83419e-06</wgt>
  <wgt id="53">2.8234e-06</wgt>
</rwgt>
</event>
<event>
 10      0 +2.8251000e-06 2.48644900e+02 7.54677100e-03 1.08077900e-01
        2 -1    0    0  501    0 +0.00000000000e+00 +0.00000000000e+00 +1.03594495100e+03  1.03594495100e+03  0.00000000000e+00 0.0000e+00 -1.0000e+00
       -1 -1    0    0    0  501 +0.00000000000e+00 +0.00000000000e+00 -2.53096126930e+02  2.53096126930e+02  0.00000000000e+00 0.0000e+00 1.0000e+00
       24  2    1    2    0    0 +1.92255343807e+02 +3.83108353294e+01 -2.59549275014e+01  2.14159410648e+02  8.22238261173e+01 0.0000e+00 0.0000e+00
        4  1    3    3  503    0 +5.00566237057e+01 +4.56863584117e+01 +6.61178411407e+00  6.80927647471e+01  0.00000000000e+00 0.0000e+00 -1.0000e+00
       -3  1    3    3    0  503 +1.42198720102e+02 -7.37552308230e+00 -3.25667116155e+01  1.46066645901e+02  0.00000000000e+00 0.0000e+00 1.0000e+00
       24  2    1    2    0    0 +1.74425796916e+01 -5.78244500794e-01 +2.80037213792e+02  2.92320948318e+02  8.20129121791e+01 0.0000e+00 0.0000e+00
        4  1    6    6  504    0 +2.66046495068e+01 +3.18929975607e+00 +2.81084968330e+02  2.82359236487e+02  0.00000000000e+00 0.0000e+00 -1.0000e+00
       -3  1    6    6    0  504 -9.16206981520e+00 -3.76754425687e+00 -1.04775453840e+00  9.96171183075e+00  0.00000000000e+00 0.0000e+00 1.0000e+00
        1  1    1    2  502    0 +1.11916421152e+02 +6.25123242614e+01 +4.03128501616e+02  4.23019697914e+02  0.00000000000e+00 0.0000e+00 -1.0000e+00
       -2  1    1    2    0  502 -3.21614344651e+02 -1.00244915090e+02 +1.25638036163e+02  3.59541021050e+02  0.00000000000e+00 0.0000e+00 1.0000e+00
#  0.1300000e+05  0.1300000e+05  0.1300000e+05  0.1300000e+05
<mgrwt>
<rscale>  2 0.18923630e+03</rscale>
<asrwt>0</asrwt>
<pdfrwt beam="1">  1        2 0.15937615e+00 0.83421667e+02</pdfrwt>
<pdfrwt beam="2">  1       -1 0.38937866e-01 0.24864495e+03</pdfrwt>
<totfact> 0.26964437e+00</totfact>
</mgrwt>
<clustering>
<clus scale="   83.422">  1  4  2 -1</clus>
<clus scale="  136.516">  1  5  2 -1</clus>
<clus scale="  235.281">  1  6  2 -1</clus>
<clus scale="  248.645">  1  3  2 -1</clus>
</clustering>
<rwgt>
  <wgt id="1">4.65803e-06</wgt>
  <wgt id="2">3.04392e-06</wgt>
  <wgt id="3">2.14926e-06</wgt>
  <wgt id="4">4.32318e-06</wgt>
  <wgt id="5">2.8251e-06</wgt>
  <wgt id="6">1.99476e-06</wgt>
  <wgt id="7">4.00498e-06</wgt>
  <wgt id="8">2.61717e-06</wgt>
  <wgt id="9">1.84794e-06</wgt>
  <wgt id="10">2.8251e-06</wgt>
  <wgt id="11">2.8251e-06</wgt>
  <wgt id="12">2.8251e-06</wgt>
  <wgt id="13">2.8251e-06</wgt>
  <wgt id="14">2.83017e-06</wgt>
  <wgt id="15">2.82088e-06</wgt>
  <wgt id="16">2.83474e-06</wgt>
  <wgt id="17">2.81402e-06</wgt>
  <wgt id="18">2.81109e-06</wgt>
  <wgt id="19">2.84581e-06</wgt>
  <wgt id="20">2.83583e-06</wgt>
  <wgt id="21">2.81785e-06</wgt>
  <wgt id="22">2.8344e-06</wgt>
  <wgt id="23">2.81181e-06</wgt>
  <wgt id="24">2.87498e-06</wgt>
  <wgt id="25">2.79455e-06</wgt>
  <wgt id="26">2.82559e-06</wgt>
  <wgt id="27">2.82434e-06</wgt>
  <wgt id="28">2.85423e-06</wgt>
  <wgt id="29">2.81454e-06</wgt>
  <wgt id="30">2.8283e-06</wgt>
  <wgt id="31">2.82013e-06</wgt>
  <wgt id="32">2.83808e-06</wgt>
  <wgt id="33">2.81265e-06</wgt>
  <wgt id="34">2.80442e-06</wgt>
  <wgt id="35">2.86268e-06</wgt>
  <wgt id="36">2.85313e-06</wgt>
  <wgt id="37">2.80711e-06</wgt>
  <wgt id="38">2.8306e-06</wgt>
  <wgt id="39">2.82263e-06</wgt>
  <wgt id="40">2.81876e-06</wgt>
  <wgt id="41">2.83229e-06</wgt>
  <wgt id="42">2.84653e-06</wgt>
  <wgt id="43">2.7789e-06</wgt>
  <wgt id="44">2.83205e-06</wgt>
  <wgt id="45">2.82265e-06</wgt>
  <wgt id="46">2.81791e-06</wgt>
  <wgt id="47">2.83064e-06</wgt>
  <wgt id="48">2.82474e-06</wgt>
  <wgt id="49">2.82636e-06</wgt>
  <wgt id="50">2.83056e-06</wgt>
  <wgt id="51">2.81787e-06</wgt>
  <wgt id="52">2.83597e-06</wgt>
  <wgt id="53">2.82207e-06</wgt>
</rwgt>
</event>
<event>
 12      0 +2.8251000e-06 4.46733600e+02 7.54677100e-03 9.88584200e-02
        2 -1    0    0  501    0 +0.00000000000e+00 +0.00000000000e+00 +8.77127834440e+02  8.77127834440e+02  0.00000000000e+00 0.0000e+00 -1.0000e+00
        2 -1    0    0  504    0 +0.00000000000e+00 +0.00000000000e+00 -1.51609465350e+03  1.51609465350e+03  0.00000000000e+00 0.0000e+00 -1.0000e+00
       24  2    1    2    0    0 +3.95453166753e+02 +1.42434495590e+02 -1.06920057220e+02  4.41064164449e+02  8.02178651927e+01 0.0000e+00 0.0000e+00
       14  1    3    3    0    0 +2.97391901246e+02 +1.23162672537e+02 -1.12478303396e+02  3.40972661028e+02  0.00000000000e+00 0.0000e+00 -1.0000e+00
      -13  1    3    3    0    0 +9.80612655065e+01 +1.92718230525e+01 +5.55824617618e+00  1.00091503421e+02  0.00000000000e+00 0.0000e+00 1.0000e+00
       24  2    1    2    0    0 -1.47551263246e+02 -1.49388953788e+02 +1.61710118153e+02  2.77047971073e+02  8.07278214953e+01 0.0000e+00 0.0000e+00
        2  1    6    6  505    0 -7.90826295267e+01 -1.16894384374e+02 +6.83907343056e+01  1.56830009660e+02  0.00000000000e+00 0.0000e+00 -1.0000e+00
       -1  1    6    6    0  505 -6.84686337188e+01 -3.24945694145e+01 +9.33193838476e+01  1.20217961414e+02  0.00000000000e+00 0.0000e+00 1.0000e+00
       21  1    1    2  503  502 -1.14587695074e+02 -1.02097227080e+02 +1.79014652230e+02  2.35797432881e+02  0.00000000000e+00 0.0000e+00 -1.0000e+00
       21  1    1    2  504  503 -4.99731104416e+01 +1.39645969935e+02 -1.08586545669e+03  1.09594803651e+03  0.00000000000e+00 0.0000e+00 1.0000e+00
        1  1    1    2  501    0 +7.39038822751e+01 -3.02028978117e+00 -3.78733164254e+00  7.40624725935e+01  0.00000000000e+00 0.0000e+00 -1.0000e+00
        1  1    1    2  502    0 -1.57244980267e+02 -2.75739948745e+01 +2.16881256114e+02  2.69302410435e+02  0.00000000000e+00 0.0000e+00 -1.0000e+00
#  0.1300000e+05  0.1300000e+05  0.8595926e+02  0.1483491e+03  0.1300000e+05  0.1300000e+05
<mgrwt>
<rscale>  2 0.37320210e+03</rscale>
<asrwt>  2 0.85959258e+02 0.14834905e+03</asrwt>
<pdfrwt beam="1">  1        2 0.13494274e+00 0.21758571e+03</pdfrwt>
<pdfrwt beam="2">  2        2        2 0.23324533e+00 0.64073689e-01 0.14834905e+03 0.44673362e+03</pdfrwt>
<totfact> 0.94234831e-03</totfact>
</mgrwt>
<clustering>
<clus scale="   73.976">  3  7 -1 -1</clus>
<clus scale="   85.959">  5  8 -1 -1</clus>
<clus scale="  148.349">  2  6  1 -1</clus>
<clus scale="  217.586">  1  4  2 -1</clus>
<clus scale="  440.287">  1  5  2 -1</clus>
<clus scale="  446.734">  1  3  2 -1</clus>
</clustering>
<rwgt>
  <wgt id="1">4.54458e-06</wgt>
  <wgt id="2">3.097e-06</wgt>
  <wgt id="3">2.24951e-06</wgt>
  <wgt id="4">4.14559e-06</wgt>
  <wgt id="5">2.8251e-06</wgt>
  <wgt id="6">2.05201e-06</wgt>
  <wgt id="7">3.8687e-06</wgt>
  <wgt id="8">2.6364e-06</wgt>
  <wgt id="9">1.91495e-06</wgt>
  <wgt id="10">4.4989e-06</wgt>
  <wgt id="11">2.8251e-06</wgt>
  <wgt id="12">1.9439e-06</wgt>
  <wgt id="13">2.8251e-06</wgt>
  <wgt id="14">2.82804e-06</wgt>
  <wgt id="15">2.82264e-06</wgt>
  <wgt id="16">2.80923e-06</wgt>
  <wgt id="17">2.84274e-06</wgt>
  <wgt id="18">2.81104e-06</wgt>
  <wgt id="19">2.84585e-06</wgt>
  <wgt id="20">2.81576e-06</wgt>
  <wgt id="21">2.83138e-06</wgt>
  <wgt id="22">2.83322e-06</wgt>
  <wgt id="23">2.81346e-06</wgt>
  <wgt id="24">2.86986e-06</wgt>
  <wgt id="25">2.7975e-06</wgt>
  <wgt id="26">2.82524e-06</wgt>
  <wgt id="27">2.82476e-06</wgt>
  <wgt id="28">2.87837e-06</wgt>
  <wgt id="29">2.80584e-06</wgt>
  <wgt id="30">2.83086e-06</wgt>
  <wgt id="31">2.81782e-06</wgt>
  <wgt id="32">2.82706e-06</wgt>
  <wgt id="33">2.82315e-06</wgt>
  <wgt id="34">2.78404e-06</wgt>
  <wgt id="35">2.90116e-06</wgt>
  <wgt id="36">2.84982e-06</wgt>
  <wgt id="37">2.8112e-06</wgt>
  <wgt id="38">2.81267e-06</wgt>
  <wgt id="39">2.83149e-06</wgt>
  <wgt id="40">2.82784e-06</wgt>
  <wgt id="41">2.82259e-06</wgt>
  <wgt id="42">2.84985e-06</wgt>
  <wgt id="43">2.7855e-06</wgt>
  <wgt id="44">2.83177e-06</wgt>
  <wgt id="45">2.82273e-06</wgt>
  <wgt id="46">2.82368e-06</wgt>
  <wgt id="47">2.82602e-06</wgt>
  <wgt id="48">2.8236e-06</wgt>
  <wgt id="49">2.83023e-06</wgt>
  <wgt id="50">2.81683e-06</wgt>
  <wgt id="51">2.83794e-06</wgt>
  <wgt id="52">2.84134e-06</wgt>
  <wgt id="53">2.82098e-06</wgt>
</rwgt>
</event>
<event>
 10      0 +2.8251000e-06 1.60041000e+02 7.54677100e-03 1.10858100e-01
        4 -1    0    0  501    0 +0.00000000000e+00 +0.00000000000e+00 +3.93848376160e+02  3.93848376160e+02  0.00000000000e+00 0.0000e+00 -1.0000e+00
        2 -1    0    0  502    0 +0.00000000000e+00 +0.00000000000e+00 -1.45731041050e+03  1.45731041050e+03  0.00000000000e+00 0.0000e+00 -1.0000e+00
       24  2    1    2    0    0 -4.53549863960e+01 -2.38739868057e+01 -4.59386775915e+02  4.69252118280e+02  8.08350084295e+01 0.0000e+00 0.0000e+00
        2  1    3    3  503    0 -4.48681311952e+01 -4.27124338545e+01 -4.29331017203e+02  4.33777158844e+02  0.00000000000e+00 0.0000e+00 -1.0000e+00
       -1  1    3    3    0  503 -4.86855200812e-01 +1.88384470488e+01 -3.00557587118e+01  3.54749594353e+01  0.00000000000e+00 0.0000e+00 1.0000e+00
       24  2    1    2    0    0 +3.90091668610e+01 +4.10297173408e-01 +2.15584705130e+02  2.33398592598e+02  8.04751793876e+01 0.0000e+00 0.0000e+00
        2  1    6    6  504    0 -2.79821285120e+00 -2.57558337797e+01 +2.31485023763e+01  3.47425694374e+01  0.00000000000e+00 0.0000e+00 -1.0000e+00
       -1  1    6    6    0  504 +4.18073797122e+01 +2.61661309531e+01 +1.92436202754e+02  1.98656023160e+02  0.00000000000e+00 0.0000e+00 1.0000e+00
        1  1    1    2  501    0 -2.35446422193e+02 +3.65704725130e+01 -8.69267664918e+02  9.01331620690e+02  0.00000000000e+00 0.0000e+00 -1.0000e+00
        3  1    1    2  502    0 +2.41792241728e+02 -1.31067828806e+01 +4.96077013627e+01  2.47176455092e+02  0.00000000000e+00 0.0000e+00 -1.0000e+00
#  0.1300000e+05  0.1300000e+05  0.1300000e+05  0.1300000e+05
<mgrwt>
<rscale>  2 0.15773441e+03</rscale>
<asrwt>0</asrwt>
<pdfrwt beam="1">  1        2 0.22420160e+00 0.94712250e+02</pdfrwt>
<pdfrwt beam="2">  1        4 0.60592058e-01 0.89369085e+02</pdfrwt>
<totfact> 0.28091280e-01</totfact>
</mgrwt>
<clustering>
<clus scale="   89.369">  1  4  2 -1</clus>
<clus scale="   94.712">  2  3  1 -1</clus>
<clus scale="  270.431">  2  5  1 -1</clus>
<clus scale="  270.431">  2  3  1 -1</clus>
</clustering>
<rwgt>
  <wgt id="1">4.41712e-06</wgt>
  <wgt id="2">2.84935e-06</wgt>
  <wgt id="3">1.99481e-06</wgt>
  <wgt id="4">4.37952e-06</wgt>
  <wgt id="5">2.8251e-06</wgt>
  <wgt id="6">1.97783e-06</wgt>
  <wgt id="7">4.14041e-06</wgt>
  <wgt id="8">2.67086e-06</wgt>
  <wgt id="9">1.86985e-06</wgt>
  <wgt id="10">2.8251e-06</wgt>
  <wgt id="11">2.8251e-06</wgt>
  <wgt id="12">2.8251e-06</wgt>
  <wgt id="13">2.8251e-06</wgt>
  <wgt id="14">2.83381e-06</wgt>
  <wgt id="15">2.81788e-06</wgt>
  <wgt id="16">2.81662e-06</wgt>
  <wgt id="17">2.83451e-06</wgt>
  <wgt id="18">2.81942e-06</wgt>
  <wgt id="19">2.83345e-06</wgt>
  <wgt id="20">2.82394e-06</wgt>
  <wgt id="21">2.82584e-06</wgt>
  <wgt id="22">2.82569e-06</wgt>
  <wgt id="23">2.82422e-06</wgt>
  <wgt id="24">2.8264e-06</wgt>
  <wgt id="25">2.82409e-06</wgt>
  <wgt id="26">2.83027e-06</wgt>
  <wgt id="27">2.81797e-06</wgt>
  <wgt id="28">2.84621e-06</wgt>
  <wgt id="29">2.81738e-06</wgt>
  <wgt id="30">2.81199e-06</wgt>
  <wgt id="31">2.84034e-06</wgt>
  <wgt id="32">2.82568e-06</wgt>
  <wgt id="33">2.82455e-06</wgt>
  <wgt id="34">2.83198e-06</wgt>
  <wgt id="35">2.81356e-06</wgt>
  <wgt id="36">2.81541e-06</wgt>
  <wgt id="37">2.8317e-06</wgt>
  <wgt id="38">2.80818e-06</wgt>
  <wgt id="39">2.83345e-06</wgt>
  <wgt id="40">2.82033e-06</wgt>
  <wgt id="41">2.83169e-06</wgt>
  <wgt id="42">2.82036e-06</wgt>
  <wgt id="43">2.83567e-06</wgt>
  <wgt id="44">2.82282e-06</wgt>
  <wgt id="45">2.82623e-06</wgt>
  <wgt id="46">2.8286e-06</wgt>
  <wgt id="47">2.82296e-06</wgt>
  <wgt id="48">2.83213e-06</wgt>
  <wgt id="49">2.8243e-06</wgt>
  <wgt id="50">2.86365e-06</wgt>
  <wgt id="51">2.79198e-06</wgt>
  <wgt id="52">2.83632e-06</wgt>
  <wgt id="53">2.82231e-06</wgt>
</rwgt>
</event>
<event>
 12      0 +2.8251000e-06 1.31336200e+02 7.54677100e-03 1.14305900e-01
       -3 -1    0    0    0  502 +0.00000000000e+00 +0.00000000000e+00 +5.01130907960e+02  5.01130907960e+02  0.00000000000e+00 0.0000e+00 1.0000e+00
       -1 -1    0    0    0  501 +0.00000000000e+00 +0.00000000000e+00 -2.08918040500e+03  2.08918040500e+03  0.00000000000e+00 0.0000e+00 1.0000e+00
       24  2    1    2    0    0 +2.62389782051e+01 -6.95324954945e+01 +4.11451666588e+01  1.17404139171e+02  8.10404543930e+01 0.0000e+00 0.0000e+00
        2  1    3    3  505    0 -1.29024330059e+01 +1.47000889415e+00 +3.35465754784e+01  3.59723008709e+01  0.00000000000e+00 0.0000e+00 -1.0000e+00
       -1  1    3    3    0  505 +3.91414112110e+01 -7.10025043886e+01 +7.59859118041e+00  8.14318383003e+01  0.00000000000e+00 0.0000e+00 1.0000e+00
       24  2    1    2    0    0 -1.83803462043e+01 -5.99419357495e+01 -1.47316230853e+03  1.47677596198e+03  8.20315905037e+01 0.0000e+00 0.0000e+00
        4  1    6    6  506    0 -2.37542559322e+01 -7.06015297515e+01 -7.88780032468e+02  7.92289581087e+02  0.00000000000e+00 0.0000e+00 -1.0000e+00
       -3  1    6    6    0  506 +5.37390972796e+00 +1.06595940021e+01 -6.84382276057e+02  6.84486380895e+02  0.00000000000e+00 0.0000e+00 1.0000e+00
       21  1    1    2  503  502 +4.65428045477e+01 +1.45954666506e+01 +3.29599530520e+02  3.33189301780e+02  0.00000000000e+00 0.0000e+00 -1.0000e+00
       21  1    1    2  504  503 -6.82610880219e+01 -2.65177912820e+01 -2.15961828034e+02  2.28040085424e+02  0.00000000000e+00 0.0000e+00 1.0000e+00
       -2  1    1    2    0  504 -4.77542171834e+01 +1.91547233117e+01 -2.91739852322e+02  2.96242316553e+02  0.00000000000e+00 0.0000e+00 1.0000e+00
       -4  1    1    2    0  501 +6.16138686568e+01 +1.22242032564e+02 +2.20697946624e+01  1.38659508050e+02  0.00000000000e+00 0.0000e+00 1.0000e+00
#  0.1300000e+05  0.1300000e+05  0.4877766e+02  0.5142938e+02  0.1300000e+05  0.1300000e+05
<mgrwt>
<rscale>  2 0.12745349e+03</rscale>
<asrwt>  2 0.48777662e+02 0.51429383e+02</asrwt>
<pdfrwt beam="1">  1       -1 0.32141237e+00 0.10181579e+03</pdfrwt>
<pdfrwt beam="2">  2       -3       -3 0.77097063e-01 0.26047070e-01 0.48777662e+02 0.13133620e+03</pdfrwt>
<totfact> 0.39912581e-05</totfact>
</mgrwt>
<clustering>
<clus scale="   48.778">  1  5  2 -1</clus>
<clus scale="   51.429">  6  7 -1 -1</clus>
<clus scale="  101.816">  2  4  1 -1</clus>
<clus scale="  114.801">  1  3  2 -1</clus>
<clus scale="  137.568">  1  8  2 -1</clus>
<clus scale="  150.253">  2  3  1 -1</clus>
</clustering>
<rwgt>
  <wgt id="1">5.47371e-06</wgt>
  <wgt id="2">3.47483e-06</wgt>
  <wgt id="3">2.40722e-06</wgt>
  <wgt id="4">4.45022e-06</wgt>
  <wgt id="5">2.8251e-06</wgt>
  <wgt id="6">1.95712e-06</wgt>
  <wgt id="7">3.7443e-06</wgt>
  <wgt id="8">2.37696e-06</wgt>
  <wgt id="9">1.64666e-06</wgt>
  <wgt id="10">4.85978e-06</wgt>
  <wgt id="11">2.8251e-06</wgt>
  <wgt id="12">1.85325e-06</wgt>
  <wgt id="13">2.8251e-06</wgt>
  <wgt id="14">2.83872e-06</wgt>
  <wgt id="15">2.80802e-06</wgt>
  <wgt id="16">2.82739e-06</wgt>
  <wgt id="17">2.81372e-06</wgt>
  <wgt id="18">2.84122e-06</wgt>
  <wgt id="19">2.78958e-06</wgt>
  <wgt id="20">2.66839e-06</wgt>
  <wgt id="21">2.92038e-06</wgt>
  <wgt id="22">2.86829e-06</wgt>
  <wgt id="23">2.75578e-06</wgt>
  <wgt id="24">2.79011e-06</wgt>
  <wgt id="25">2.84204e-06</wgt>
  <wgt id="26">2.79032e-06</wgt>
  <wgt id="27">2.86272e-06</wgt>
  <wgt id="28">2.77063e-06</wgt>
  <wgt id="29">2.83824e-06</wgt>
  <wgt id="30">2.75085e-06</wgt>
  <wgt id="31">2.91354e-06</wgt>
  <wgt id="32">2.79486e-06</wgt>
  <wgt id="33">2.84369e-06</wgt>
  <wgt id="34">3.01512e-06</wgt>
  <wgt id="35">2.50075e-06</wgt>
  <wgt id="36">3.31539e-06</wgt>
  <wgt id="37">2.44121e-06</wgt>
  <wgt id="38">2.71843e-06</wgt>
  <wgt id="39">2.85547e-06</wgt>
  <wgt id="40">2.80105e-06</wgt>
  <wgt id="41">2.85122e-06</wgt>
  <wgt id="42">2.85042e-06</wgt>
  <wgt id="43">2.74955e-06</wgt>
  <wgt id="44">3.14096e-06</wgt>
  <wgt id="45">2.68e-06</wgt>
  <wgt id="46">3.07925e-06</wgt>
  <wgt id="47">2.63555e-06</wgt>
  <wgt id="48">3.14954e-06</wgt>
  <wgt id="49">2.58632e-06</wgt>
  <wgt id="50">2.83373e-06</wgt>
  <wgt id="51">2.85041e-06</wgt>
  <wgt id="52">2.91245e-06</wgt>
  <wgt id="53">2.85875e-06</wgt>
</rwgt>
</event>
<event>
 10      0 +2.8251000e-06 1.94047400e+02 7.54677100e-03 1.09839500e-01
        4 -1    0    0  501    0 +0.00000000000e+00 +0.00000000000e+00 +1.34475024390e+02  1.34475024390e+02  0.00000000000e+00 0.0000e+00 -1.0000e+00
        2 -1    0    0  502    0 +0.00000000000e+00 +0.00000000000e+00 -1.43934823470e+03  1.43934823470e+03  0.00000000000e+00 0.0000e+00 -1.0000e+00
       24  2    1    2    0    0 +5.43654903127e+01 -8.17559027126e-01 -6.14598341635e+02  6.22082271982e+02  7.93659664724e+01 0.0000e+00 0.0000e+00
        2  1    3    3  503    0 -1.64705909809e+01 -1.53926428410e+01 -1.94795495123e+02  1.96095636721e+02  0.00000000000e+00 0.0000e+00 -1.0000e+00
       -1  1    3    3    0  503 +7.08360812936e+01 +1.45750838139e+01 -4.19802846512e+02  4.25986635261e+02  0.00000000000e+00 0.0000e+00 1.0000e+00
       24  2    1    2    0    0 +1.31372545142e+02 +4.75271093806e+01 -1.16602911915e+02  1.99662215125e+02  8.21656213895e+01 0.0000e+00 0.0000e+00
       12  1    6    6    0    0 +1.14131576232e+02 +6.14290939698e+01 -6.82630690250e+01  1.46490262038e+02  0.00000000000e+00 0.0000e+00 -1.0000e+00
      -11  1    6    6    0    0 +1.72409689099e+01 -1.39019845892e+01 -4.83398428898e+01  5.31719530869e+01  0.00000000000e+00 0.0000e+00 1.0000e+00
        1  1    1    2  501    0 -1.58071587057e+02 +1.89112086831e+02 -3.29615462218e+02  4.11577891721e+02  0.00000000000e+00 0.0000e+00 -1.0000e+00
        3  1    1    2  502    0 -2.76664483977e+01 -2.35821637184e+02 -2.44056494542e+02  3.40500880262e+02  0.00000000000e+00 0.0000e+00 -1.0000e+00
#  0.1300000e+05  0.1300000e+05  0.1300000e+05  0.1300000e+05
<mgrwt>
<rscale>  2 0.16844472e+03</rscale>
<asrwt>0</asrwt>
<pdfrwt beam="1">  1        2 0.22143819e+00 0.96705771e+02</pdfrwt>
<pdfrwt beam="2">  1        4 0.20688465e-01 0.17031553e+03</pdfrwt>
<totfact> 0.25961452e+00</totfact>
</mgrwt>
<clustering>
<clus scale="   96.706">  2  3  1 -1</clus>
<clus scale="  170.316">  1  4  2 -1</clus>
<clus scale="  221.086">  2  5  1 -1</clus>
<clus scale="  221.086">  2  3  1 -1</clus>
</clustering>
<rwgt>
  <wgt id="1">4.27163e-06</wgt>
  <wgt id="2">2.76879e-06</wgt>
  <wgt id="3">1.94444e-06</wgt>
  <wgt id="4">4.3585e-06</wgt>
  <wgt id="5">2.8251e-06</wgt>
  <wgt id="6">1.98398e-06</wgt>
  <wgt id="7">4.27219e-06</wgt>
  <wgt id="8">2.76915e-06</wgt>
  <wgt id="9">1.94469e-06</wgt>
  <wgt id="10">2.8251e-06</wgt>
  <wgt id="11">2.8251e-06</wgt>
  <wgt id="12">2.8251e-06</wgt>
  <wgt id="13">2.8251e-06</wgt>
  <wgt id="14">2.83211e-06</wgt>
  <wgt id="15">2.81915e-06</wgt>
  <wgt id="16">2.81761e-06</wgt>
  <wgt id="17">2.83339e-06</wgt>
  <wgt id="18">2.81972e-06</wgt>
  <wgt id="19">2.8329e-06</wgt>
  <wgt id="20">2.82367e-06</wgt>
  <wgt id="21">2.82604e-06</wgt>
  <wgt id="22">2.82602e-06</wgt>
  <wgt id="23">2.82376e-06</wgt>
  <wgt id="24">2.82824e-06</wgt>
  <wgt id="25">2.8229e-06</wgt>
  <wgt id="26">2.83075e-06</wgt>
  <wgt id="27">2.81721e-06</wgt>
  <wgt id="28">2.84458e-06</wgt>
  <wgt id="29">2.8179e-06</wgt>
  <wgt id="30">2.83778e-06</wgt>
  <wgt id="31">2.80682e-06</wgt>
  <wgt id="32">2.82142e-06</wgt>
  <wgt id="33">2.82841e-06</wgt>
  <wgt id="34">2.80585e-06</wgt>
  <wgt id="35">2.85952e-06</wgt>
  <wgt id="36">2.83758e-06</wgt>
  <wgt id="37">2.81768e-06</wgt>
  <wgt id="38">2.82128e-06</wgt>
  <wgt id="39">2.82705e-06</wgt>
  <wgt id="40">2.82524e-06</wgt>
  <wgt id="41">2.8265e-06</wgt>
  <wgt id="42">2.8231e-06</wgt>
  <wgt id="43">2.83056e-06</wgt>
  <wgt id="44">2.82748e-06</wgt>
  <wgt id="45">2.82433e-06</wgt>
  <wgt id="46">2.82696e-06</wgt>
  <wgt id="47">2.82389e-06</wgt>
  <wgt id="48">2.82338e-06</wgt>
  <wgt id="49">2.82892e-06</wgt>
  <wgt id="50">2.83929e-06</wgt>
  <wgt id="51">2.79529e-06</wgt>
  <wgt id="52">2.83098e-06</wgt>
  <wgt id="53">2.82372e-06</wgt>
</rwgt>
</event>
<event>
 10      0 +2.8251000e-06 5.74082200e+02 7.54677100e-03 9.91720800e-02
        2 -1    0    0  502    0 +0.00000000000e+00 +0.00000000000e+00 +1.14612529820e+03  1.14612529820e+03  0.00000000000e+00 0.0000e+00 -1.0000e+00
        4 -1    0    0  501    0 +0.00000000000e+00 +0.00000000000e+00 -8.18227876360e+02  8.18227876360e+02  0.00000000000e+00 0.0000e+00 -1.0000e+00
       24  2    1    2    0    0 +1.50169264423e+01 -7.53249981401e+01 -7.69118145738e+02  7.77870827992e+02  8.74124677163e+01 0.0000e+00 0.0000e+00
       16  1    3    3    0    0 +1.12215231095e+01 -8.99886565307e+01 -4.88630059727e+02  4.96974059840e+02  0.00000000000e+00 0.0000e+00 -1.0000e+00
      -15  1    3    3    0    0 +3.79540333277e+00 +1.46636583906e+01 -2.80488086011e+02  2.80896768151e+02  1.77700000000e+00 0.0000e+00 1.0000e+00
       24  2    1    2    0    0 -4.53893338894e+01 -9.08952930009e+00 +4.60633254167e+02  4.70147987035e+02  8.19348747124e+01 0.0000e+00 0.0000e+00
        4  1    6    6  503    0 -1.48057135005e+01 +7.04712776895e+00 +1.23458897886e+01  2.05254027177e+01  0.00000000000e+00 0.0000e+00 -1.0000e+00
       -3  1    6    6    0  503 -3.05836203890e+01 -1.61366570690e+01 +4.48287364379e+02  4.49622584317e+02  0.00000000000e+00 0.0000e+00 1.0000e+00
        1  1    1    2  501    0 -5.63719103537e+01 +1.47961596500e+02 +5.66211609021e+02  5.87933680363e+02  0.00000000000e+00 0.0000e+00 -1.0000e+00
        3  1    1    2  502    0 +8.67443178008e+01 -6.35470690595e+01 +7.01707043902e+01  1.28400679170e+02  0.00000000000e+00 0.0000e+00 -1.0000e+00
#  0.1300000e+05  0.1300000e+05  0.1300000e+05  0.1300000e+05
<mgrwt>
<rscale>  2 0.36390191e+03</rscale>
<asrwt>0</asrwt>
<pdfrwt beam="1">  1        2 0.17632697e+00 0.92686194e+02</pdfrwt>
<pdfrwt beam="2">  1        4 0.12588121e+00 0.57408223e+03</pdfrwt>
<totfact> 0.52442812e-02</totfact>
</mgrwt>
<clustering>
<clus scale="   92.686">  1  4  2 -1</clus>
<clus scale="  103.093">  3  6 -1 -1</clus>
<clus scale="  169.678">  1  5  2 -1</clus>
<clus scale="  574.082">  1  3  2 -1</clus>
</clustering>
<rwgt>
  <wgt id="1">4.59209e-06</wgt>
  <wgt id="2">3.12478e-06</wgt>
  <wgt id="3">2.2675e-06</wgt>
  <wgt id="4">4.15169e-06</wgt>
  <wgt id="5">2.8251e-06</wgt>
  <wgt id="6">2.05003e-06</wgt>
  <wgt id="7">3.74028e-06</wgt>
  <wgt id="8">2.54515e-06</wgt>
  <wgt id="9">1.84689e-06</wgt>
  <wgt id="10">2.8251e-06</wgt>
  <wgt id="11">2.8251e-06</wgt>
  <wgt id="12">2.8251e-06</wgt>
  <wgt id="13">2.8251e-06</wgt>
  <wgt id="14">2.83459e-06</wgt>
  <wgt id="15">2.81724e-06</wgt>
  <wgt id="16">2.81789e-06</wgt>
  <wgt id="17">2.83309e-06</wgt>
  <wgt id="18">2.81935e-06</wgt>
  <wgt id="19">2.83362e-06</wgt>
  <wgt id="20">2.82217e-06</wgt>
  <wgt id="21">2.82704e-06</wgt>
  <wgt id="22">2.82497e-06</wgt>
  <wgt id="23">2.8252e-06</wgt>
  <wgt id="24">2.82288e-06</wgt>
  <wgt id="25">2.82624e-06</wgt>
  <wgt id="26">2.82922e-06</wgt>
  <wgt id="27">2.81948e-06</wgt>
  <wgt id="28">2.84762e-06</wgt>
  <wgt id="29">2.81696e-06</wgt>
  <wgt id="30">2.77711e-06</wgt>
  <wgt id="31">2.88557e-06</wgt>
  <wgt id="32">2.83268e-06</wgt>
  <wgt id="33">2.81807e-06</wgt>
  <wgt id="34">2.87842e-06</wgt>
  <wgt id="35">2.73517e-06</wgt>
  <wgt id="36">2.78477e-06</wgt>
  <wgt id="37">2.85137e-06</wgt>
  <wgt id="38">2.78675e-06</wgt>
  <wgt id="39">2.84371e-06</wgt>
  <wgt id="40">2.81234e-06</wgt>
  <wgt id="41">2.84186e-06</wgt>
  <wgt id="42">2.81601e-06</wgt>
  <wgt id="43">2.84296e-06</wgt>
  <wgt id="44">2.81595e-06</wgt>
  <wgt id="45">2.82889e-06</wgt>
  <wgt id="46">2.83202e-06</wgt>
  <wgt id="47">2.82094e-06</wgt>
  <wgt id="48">2.84464e-06</wgt>
  <wgt id="49">2.81604e-06</wgt>
  <wgt id="50">2.81403e-06</wgt>
  <wgt id="51">2.86662e-06</wgt>
  <wgt id="52">2.84054e-06</wgt>
  <wgt id="53">2.82118e-06</wgt>
</rwgt>
</event>
<event>
 10      0 +2.8251000e-06 1.96384200e+02 7.54677100e-03 1.08111800e-01
        2 -1    0    0  501    0 +0.00000000000e+00 +0.00000000000e+00 +5.30043368240e+02  5.30043368240e+02  0.00000000000e+00 0.0000e+00 -1.0000e+00
        2 -1    0    0  502    0 +0.00000000000e+00 +0.00000000000e+00 -9.48061536070e+02  9.48061536070e+02  0.00000000000e+00 0.0000e+00 -1.0000e+00
       24  2    1    2    0    0 +4.90306595000e+01 -4.66515879380e+01 -1.43681356004e+02  1.77766378075e+02  7.98509666977e+01 0.0000e+00 0.0000e+00
       16  1    3    3    0    0 +5.54682647025e+01 +1.90829280075e+00 -7.09943494567e+01  9.01141921414e+01  0.00000000000e+00 0.0000e+00 -1.0000e+00
      -15  1    3    3    0    0 -6.43760520244e+00 -4.85598807387e+01 -7.26870065473e+01  8.76521859335e+01  1.77700000000e+00 0.0000e+00 1.0000e+00
       24  2    1    2    0    0 -3.97108241436e+01 -1.03154726367e+00 +2.03032606720e+02  2.22530298238e+02  8.19724380399e+01 0.0000e+00 0.0000e+00
        4  1    6    6  503    0 -2.56425703551e+01 +3.38746344042e+01 +1.59001806602e+02  1.64580092275e+02  0.00000000000e+00 0.0000e+00 -1.0000e+00
       -3  1    6    6    0  503 -1.40682537885e+01 -3.49061816678e+01 +4.40308001185e+01  5.79502059633e+01  0.00000000000e+00 0.0000e+00 1.0000e+00
        1  1    1    2  501    0 +1.51816883813e+02 -2.79918917118e+02 -6.11026007227e+02  6.89025215706e+02  0.00000000000e+00 0.0000e+00 -1.0000e+00
        1  1    1    2  502    0 -1.61136719169e+02 +3.27602052319e+02 +1.33656588680e+02  3.88783012291e+02  0.00000000000e+00 0.0000e+00 -1.0000e+00
#  0.1300000e+05  0.1300000e+05  0.1300000e+05  0.1300000e+05
<mgrwt>
<rscale>  2 0.18880646e+03</rscale>
<asrwt>0</asrwt>
<pdfrwt beam="1">  1        2 0.81545134e-01 0.89539379e+02</pdfrwt>
<pdfrwt beam="2">  1        2 0.14585562e+00 0.10480275e+03</pdfrwt>
<totfact> 0.32404857e+00</totfact>
</mgrwt>
<clustering>
<clus scale="   89.539">  1  4  2 -1</clus>
<clus scale="  104.803">  2  3  1 -1</clus>
<clus scale="  367.994">  1  6  2 -1</clus>
<clus scale="  367.994">  1  3  2 -1</clus>
</clustering>
<rwgt>
  <wgt id="1">4.73075e-06</wgt>
  <wgt id="2">3.09096e-06</wgt>
  <wgt id="3">2.18226e-06</wgt>
  <wgt id="4">4.32384e-06</wgt>
  <wgt id="5">2.8251e-06</wgt>
  <wgt id="6">1.99455e-06</wgt>
  <wgt id="7">3.96412e-06</wgt>
  <wgt id="8">2.59006e-06</wgt>
  <wgt id="9">1.82861e-06</wgt>
  <wgt id="10">2.8251e-06</wgt>
  <wgt id="11">2.8251e-06</wgt>
  <wgt id="12">2.8251e-06</wgt>
  <wgt id="13">2.8251e-06</wgt>
  <wgt id="14">2.82791e-06</wgt>
  <wgt id="15">2.82279e-06</wgt>
  <wgt id="16">2.81988e-06</wgt>
  <wgt id="17">2.83081e-06</wgt>
  <wgt id="18">2.81237e-06</wgt>
  <wgt id="19">2.84396e-06</wgt>
  <wgt id="20">2.81132e-06</wgt>
  <wgt id="21">2.83441e-06</wgt>
  <wgt id="22">2.83167e-06</wgt>
  <wgt id="23">2.81574e-06</wgt>
  <wgt id="24">2.86243e-06</wgt>
  <wgt id="25">2.80203e-06</wgt>
  <wgt id="26">2.82371e-06</wgt>
  <wgt id="27">2.82703e-06</wgt>
  <wgt id="28">2.8715e-06</wgt>
  <wgt id="29">2.80829e-06</wgt>
  <wgt id="30">2.83036e-06</wgt>
  <wgt id="31">2.81836e-06</wgt>
  <wgt id="32">2.82987e-06</wgt>
  <wgt id="33">2.82057e-06</wgt>
  <wgt id="34">2.79009e-06</wgt>
  <wgt id="35">2.88957e-06</wgt>
  <wgt id="36">2.84784e-06</wgt>
  <wgt id="37">2.8133e-06</wgt>
  <wgt id="38">2.81375e-06</wgt>
  <wgt id="39">2.83065e-06</wgt>
  <wgt id="40">2.82535e-06</wgt>
  <wgt id="41">2.82541e-06</wgt>
  <wgt id="42">2.84788e-06</wgt>
  <wgt id="43">2.78532e-06</wgt>
  <wgt id="44">2.83579e-06</wgt>
  <wgt id="45">2.821e-06</wgt>
  <wgt id="46">2.8259e-06</wgt>
  <wgt id="47">2.82501e-06</wgt>
  <wgt id="48">2.80302e-06</wgt>
  <wgt id="49">2.83722e-06</wgt>
  <wgt id="50">2.81379e-06</wgt>
  <wgt id="51">2.83984e-06</wgt>
  <wgt id="52">2.83166e-06</wgt>
  <wgt id="53">2.82322e-06</wgt>
</rwgt>
</event>
<event>
 11      0 +2.8251000e-06 1.61209600e+02 7.54677100e-03 1.11295500e-01
       -1 -1    0    0    0  501 +0.00000000000e+00 +0.00000000000e+00 +9.17365391940e+02  9.17365391940e+02  0.00000000000e+00 0.0000e+00 1.0000e+00
        2 -1    0    0  503    0 +0.00000000000e+00 +0.00000000000e+00 -2.12566397510e+03  2.12566397510e+03  0.00000000000e+00 0.0000e+00 -1.0000e+00
       24  2    1    2    0    0 -1.71823782754e+01 -8.21548483973e+01 +3.13852070899e+02  3.33540245568e+02  7.55070842202e+01 0.0000e+00 0.0000e+00
        4  1    3    3  504    0 -4.53411064008e+01 -4.76866032643e+01 +1.50975213839e+02  1.64691661156e+02  0.00000000000e+00 0.0000e+00 -1.0000e+00
       -3  1    3    3    0  504 +2.81587281253e+01 -3.44682451330e+01 +1.62876857060e+02  1.68848584412e+02  0.00000000000e+00 0.0000e+00 1.0000e+00
       24  2    1    2    0    0 -4.75112899920e+01 +3.02035336424e+00 -1.13710667410e+03  1.14107661640e+03  8.23274619298e+01 0.0000e+00 0.0000e+00
        2  1    6    6  505    0 -4.88121385609e+01 -3.29441690594e+01 -7.43128275128e+02  7.45457964235e+02  0.00000000000e+00 0.0000e+00 -1.0000e+00
       -1  1    6    6    0  505 +1.30084856890e+00 +3.59645224236e+01 -3.93978398975e+02  3.95618652162e+02  0.00000000000e+00 0.0000e+00 1.0000e+00
       21  1    1    2  503  501 +2.62006241106e+01 -1.30849962078e+02 -4.84795985496e+01  1.41980480190e+02  0.00000000000e+00 0.0000e+00 1.0000e+00
        1  1    1    2  502    0 -1.22190236708e+02 -4.47030582004e+01 -8.34464816997e+02  8.44547422093e+02  0.00000000000e+00 0.0000e+00 -1.0000e+00
       -2  1    1    2    0  502 +1.60683280864e+02 +2.54687515311e+02 +4.97900435590e+02  5.81884602791e+02  0.00000000000e+00 0.0000e+00 1.0000e+00
#  0.1300000e+05  0.1300000e+05  0.1383221e+03  0.1300000e+05  0.1300000e+05
<mgrwt>
<rscale>  3 0.15340292e+03</rscale>
<asrwt>0</asrwt>
<pdfrwt beam="1">  1        2 0.32702523e+00 0.94222165e+02</pdfrwt>
<pdfrwt beam="2">  1       -1 0.14113314e+00 0.11491637e+03</pdfrwt>
<totfact> 0.69357622e-03</totfact>
</mgrwt>
<clustering>
<clus scale="   94.222">  2  4  1 -1</clus>
<clus scale="  114.916">  1  3  2 -1</clus>
<clus scale="  138.322">  2  5  1 -1</clus>
<clus scale="  226.152">  1  7  2 -1</clus>
<clus scale="  226.152">  2  3  1 -1</clus>
</clustering>
<rwgt>
  <wgt id="1">7.44788e-06</wgt>
  <wgt id="2">3.84678e-06</wgt>
  <wgt id="3">2.24887e-06</wgt>
  <wgt id="4">5.46977e-06</wgt>
  <wgt id="5">2.8251e-06</wgt>
  <wgt id="6">1.65159e-06</wgt>
  <wgt id="7">4.21751e-06</wgt>
  <wgt id="8">2.17832e-06</wgt>
  <wgt id="9">1.27347e-06</wgt>
  <wgt id="10">2.8251e-06</wgt>
  <wgt id="11">2.8251e-06</wgt>
  <wgt id="12">2.8251e-06</wgt>
  <wgt id="13">2.8251e-06</wgt>
  <wgt id="14">2.82982e-06</wgt>
  <wgt id="15">2.82141e-06</wgt>
  <wgt id="16">2.83091e-06</wgt>
  <wgt id="17">2.81852e-06</wgt>
  <wgt id="18">2.8081e-06</wgt>
  <wgt id="19">2.85101e-06</wgt>
  <wgt id="20">2.85889e-06</wgt>
  <wgt id="21">2.80245e-06</wgt>
  <wgt id="22">2.84057e-06</wgt>
  <wgt id="23">2.80319e-06</wgt>
  <wgt id="24">2.90583e-06</wgt>
  <wgt id="25">2.77613e-06</wgt>
  <wgt id="26">2.82688e-06</wgt>
  <wgt id="27">2.82299e-06</wgt>
  <wgt id="28">2.85983e-06</wgt>
  <wgt id="29">2.81279e-06</wgt>
  <wgt id="30">2.81134e-06</wgt>
  <wgt id="31">2.84303e-06</wgt>
  <wgt id="32">2.83795e-06</wgt>
  <wgt id="33">2.81291e-06</wgt>
  <wgt id="34">2.81308e-06</wgt>
  <wgt id="35">2.84742e-06</wgt>
  <wgt id="36">2.78413e-06</wgt>
  <wgt id="37">2.84757e-06</wgt>
  <wgt id="38">2.93189e-06</wgt>
  <wgt id="39">2.77766e-06</wgt>
  <wgt id="40">2.82306e-06</wgt>
  <wgt id="41">2.82792e-06</wgt>
  <wgt id="42">2.82763e-06</wgt>
  <wgt id="43">2.80768e-06</wgt>
  <wgt id="44">2.86828e-06</wgt>
  <wgt id="45">2.8077e-06</wgt>
  <wgt id="46">2.85899e-06</wgt>
  <wgt id="47">2.80401e-06</wgt>
  <wgt id="48">2.83329e-06</wgt>
  <wgt id="49">2.82461e-06</wgt>
  <wgt id="50">2.81749e-06</wgt>
  <wgt id="51">2.84506e-06</wgt>
  <wgt id="52">2.79536e-06</wgt>
  <wgt id="53">2.83409e-06</wgt>
</rwgt>
</event>
<event>
 10      0 +2.8251000e-06 1.27838600e+02 7.54677100e-03 1.15421900e-01
        2 -1    0    0  502    0 +0.00000000000e+00 +0.00000000000e+00 +4.72476514410e+03  4.72476514410e+03  0.00000000000e+00 0.0000e+00 -1.0000e+00
        2 -1    0    0  501    0 +0.00000000000e+00 +0.00000000000e+00 -7.48904643000e+02  7.48904643000e+02  0.00000000000e+00 0.0000e+00 -1.0000e+00
       24  2    1    2    0    0 -2.17592411527e+01 +6.62239706550e+01 -2.67288066056e+02  2.87566846494e+02  7.99543750017e+01 0.0000e+00 0.0000e+00
        2  1    3    3  503    0 -3.23276165388e+00 -1.18050267784e+01 -1.13180069814e+02  1.13839964899e+02  0.00000000000e+00 0.0000e+00 -1.0000e+00
       -1  1    3    3    0  503 -1.85264794989e+01 +7.80289974333e+01 -1.54107996242e+02  1.73726881595e+02  0.00000000000e+00 0.0000e+00 1.0000e+00
       24  2    1    2    0    0 +3.01691872059e+00 -4.41310064094e+00 +2.71384907123e+03  2.71505082687e+03  8.05954951213e+01 0.0000e+00 0.0000e+00
        2  1    6    6  504    0 +4.09085230083e+01 +1.46931949984e-01 +1.67884198942e+03  1.67934033307e+03  0.00000000000e+00 0.0000e+00 -1.0000e+00
       -1  1    6    6    0  504 -3.78916042877e+01 -4.56003259093e+00 +1.03500708181e+03  1.03571049381e+03  0.00000000000e+00 0.0000e+00 1.0000e+00
        1  1    1    2  501    0 +1.50437466168e+02 +1.79447951343e+01 +1.98462560113e+03  1.99040001597e+03  0.00000000000e+00 0.0000e+00 -1.0000e+00
        1  1    1    2  502    0 -1.31695143736e+02 -7.97556651484e+01 -4.55326105204e+02  4.80652097766e+02  0.00000000000e+00 0.0000e+00 -1.0000e+00
#  0.1300000e+05  0.1300000e+05  0.1300000e+05  0.1300000e+05
<mgrwt>
<rscale>  2 0.11932049e+03</rscale>
<asrwt>0</asrwt>
<pdfrwt beam="1">  1        2 0.72688695e+00 0.80590923e+02</pdfrwt>
<pdfrwt beam="2">  1        2 0.11521610e+00 0.10618761e+03</pdfrwt>
<totfact> 0.97494334e-03</totfact>
</mgrwt>
<clustering>
<clus scale="   80.591">  1  4  2 -1</clus>
<clus scale="  106.188">  2  3  1 -1</clus>
<clus scale="  153.904">  2  6  1 -1</clus>
<clus scale="  153.904">  1  3  2 -1</clus>
</clustering>
<rwgt>
  <wgt id="1">7.16885e-06</wgt>
  <wgt id="2">4.52796e-06</wgt>
  <wgt id="3">3.12587e-06</wgt>
  <wgt id="4">4.47282e-06</wgt>
  <wgt id="5">2.8251e-06</wgt>
  <wgt id="6">1.95031e-06</wgt>
  <wgt id="7">3.04077e-06</wgt>
  <wgt id="8">1.9206e-06</wgt>
  <wgt id="9">1.32588e-06</wgt>
  <wgt id="10">2.8251e-06</wgt>
  <wgt id="11">2.8251e-06</wgt>
  <wgt id="12">2.8251e-06</wgt>
  <wgt id="13">2.8251e-06</wgt>
  <wgt id="14">2.8287e-06</wgt>
  <wgt id="15">2.82194e-06</wgt>
  <wgt id="16">2.80176e-06</wgt>
  <wgt id="17">2.85117e-06</wgt>
  <wgt id="18">2.80674e-06</wgt>
  <wgt id="19">2.85221e-06</wgt>
  <wgt id="20">2.8135e-06</wgt>
  <wgt id="21">2.83279e-06</wgt>
  <wgt id="22">2.8358e-06</wgt>
  <wgt id="23">2.80998e-06</wgt>
  <wgt id="24">2.88352e-06</wgt>
  <wgt id="25">2.78941e-06</wgt>
  <wgt id="26">2.82261e-06</wgt>
  <wgt id="27">2.8284e-06</wgt>
  <wgt id="28">2.79267e-06</wgt>
  <wgt id="29">2.83606e-06</wgt>
  <wgt id="30">2.8172e-06</wgt>
  <wgt id="31">2.83481e-06</wgt>
  <wgt id="32">2.80008e-06</wgt>
  <wgt id="33">2.84895e-06</wgt>
  <wgt id="34">2.79729e-06</wgt>
  <wgt id="35">2.87506e-06</wgt>
  <wgt id="36">2.86989e-06</wgt>
  <wgt id="37">2.79887e-06</wgt>
  <wgt id="38">2.8213e-06</wgt>
  <wgt id="39">2.8268e-06</wgt>
  <wgt id="40">2.86441e-06</wgt>
  <wgt id="41">2.7858e-06</wgt>
  <wgt id="42">2.83811e-06</wgt>
  <wgt id="43">2.80243e-06</wgt>
  <wgt id="44">2.83663e-06</wgt>
  <wgt id="45">2.82046e-06</wgt>
  <wgt id="46">2.82803e-06</wgt>
  <wgt id="47">2.8234e-06</wgt>
  <wgt id="48">2.79095e-06</wgt>
  <wgt id="49">2.85366e-06</wgt>
  <wgt id="50">2.79838e-06</wgt>
  <wgt id="51">2.85942e-06</wgt>
  <wgt id="52">2.81258e-06</wgt>
  <wgt id="53">2.82919e-06</wgt>
</rwgt>
</event>
<event>
 12      0 +2.8251000e-06 5.00168400e+02 7.54677100e-03 1.00145200e-01
        2 -1    0    0  502    0 +0.00000000000e+00 +0.00000000000e+00 +1.32276340740e+03  1.32276340740e+03  0.00000000000e+00 0.0000e+00 -1.0000e+00
        2 -1    0    0  503    0 +0.00000000000e+00 +0.00000000000e+00 -1.30328749570e+03  1.30328749570e+03  0.00000000000e+00 0.0000e+00 -1.0000e+00
       24  2    1    2    0    0 -4.27242165064e+02 +7.33366522747e+01 -3.11827431691e+02  5.40222536363e+02  8.17918667353e+01 0.0000e+00 0.0000e+00
        4  1    3    3  505    0 -2.99864207018e+02 +8.85989426700e+01 -2.27893343262e+02  3.86915612500e+02  0.00000000000e+00 0.0000e+00 -1.0000e+00
       -3  1    3    3    0  505 -1.27377958045e+02 -1.52622903953e+01 -8.39340884291e+01  1.53306923863e+02  0.00000000000e+00 0.0000e+00 1.0000e+00
       24  2    1    2    0    0 +6.03616516383e+01 -4.29893747180e-01 +4.34951970430e+02  4.46478820790e+02  8.07242654715e+01 0.0000e+00 0.0000e+00
       12  1    6    6    0    0 +4.99000140642e+01 +2.73784588069e+01 +3.77819106475e+02  3.82082279918e+02  0.00000000000e+00 0.0000e+00 -1.0000e+00
      -11  1    6    6    0    0 +1.04616375741e+01 -2.78083525541e+01 +5.71328639558e+01  6.43965408721e+01  0.00000000000e+00 0.0000e+00 1.0000e+00
       21  1    1    2  503  504 +4.34637245451e+01 -4.51136798070e+01 -1.88940476240e+01  6.54318308828e+01  0.00000000000e+00 0.0000e+00 1.0000e+00
       21  1    1    2  504  501 +6.11007066864e+02 -2.77214773461e+00 +9.87737813012e+01  6.18945539149e+02  0.00000000000e+00 0.0000e+00 -1.0000e+00
        1  1    1    2  501    0 +1.31844374633e+02 -5.68698497174e+01 +2.88778437640e+02  3.22505976650e+02  0.00000000000e+00 0.0000e+00 -1.0000e+00
        1  1    1    2  502    0 -4.19434652616e+02 +3.18489187315e+01 -4.72306798356e+02  6.32466199265e+02  0.00000000000e+00 0.0000e+00 -1.0000e+00
#  0.1300000e+05  0.1300000e+05  0.5670869e+02  0.5670869e+02  0.1300000e+05  0.1300000e+05
<mgrwt>
<rscale>  3 0.33684813e+03</rscale>
<asrwt>  1 0.56708691e+02</asrwt>
<pdfrwt beam="1">  1        2 0.20350206e+00 0.10036586e+03</pdfrwt>
<pdfrwt beam="2">  1        2 0.20050577e+00 0.48788145e+03</pdfrwt>
<totfact> 0.65243074e-03</totfact>
</mgrwt>
<clustering>
<clus scale="   56.709">  5  6 -1 -1</clus>
<clus scale="  100.366">  1  4  2 -1</clus>
<clus scale="  163.307">  1  7  2 -1</clus>
<clus scale="  396.865">  1  8  2 -1</clus>
<clus scale="  487.881">  2  3  1 -1</clus>
<clus scale="  512.765">  1  3  2 -1</clus>
</clustering>
<rwgt>
  <wgt id="1">6.15901e-06</wgt>
  <wgt id="2">3.43446e-06</wgt>
  <wgt id="3">2.11351e-06</wgt>
  <wgt id="4">5.06624e-06</wgt>
  <wgt id="5">2.8251e-06</wgt>
  <wgt id="6">1.73852e-06</wgt>
  <wgt id="7">4.2754e-06</wgt>
  <wgt id="8">2.3841e-06</wgt>
  <wgt id="9">1.46714e-06</wgt>
  <wgt id="10">3.67983e-06</wgt>
  <wgt id="11">2.8251e-06</wgt>
  <wgt id="12">2.29758e-06</wgt>
  <wgt id="13">2.8251e-06</wgt>
  <wgt id="14">2.82808e-06</wgt>
  <wgt id="15">2.82261e-06</wgt>
  <wgt id="16">2.80717e-06</wgt>
  <wgt id="17">2.84508e-06</wgt>
  <wgt id="18">2.81082e-06</wgt>
  <wgt id="19">2.84621e-06</wgt>
  <wgt id="20">2.81746e-06</wgt>
  <wgt id="21">2.83023e-06</wgt>
  <wgt id="22">2.83371e-06</wgt>
  <wgt id="23">2.81286e-06</wgt>
  <wgt id="24">2.87173e-06</wgt>
  <wgt id="25">2.79637e-06</wgt>
  <wgt id="26">2.82575e-06</wgt>
  <wgt id="27">2.82414e-06</wgt>
  <wgt id="28">2.87979e-06</wgt>
  <wgt id="29">2.80534e-06</wgt>
  <wgt id="30">2.83157e-06</wgt>
  <wgt id="31">2.81699e-06</wgt>
  <wgt id="32">2.82664e-06</wgt>
  <wgt id="33">2.82362e-06</wgt>
  <wgt id="34">2.78206e-06</wgt>
  <wgt id="35">2.9048e-06</wgt>
  <wgt id="36">2.84857e-06</wgt>
  <wgt id="37">2.81142e-06</wgt>
  <wgt id="38">2.81304e-06</wgt>
  <wgt id="39">2.83139e-06</wgt>
  <wgt id="40">2.82832e-06</wgt>
  <wgt id="41">2.82205e-06</wgt>
  <wgt id="42">2.85052e-06</wgt>
  <wgt id="43">2.78498e-06</wgt>
  <wgt id="44">2.8304e-06</wgt>
  <wgt id="45">2.82331e-06</wgt>
  <wgt id="46">2.82271e-06</wgt>
  <wgt id="47">2.82655e-06</wgt>
  <wgt id="48">2.82731e-06</wgt>
  <wgt id="49">2.82921e-06</wgt>
  <wgt id="50">2.81745e-06</wgt>
  <wgt id="51">2.83713e-06</wgt>
  <wgt id="52">2.84324e-06</wgt>
  <wgt id="53">2.82059e-06</wgt>
</rwgt>
</event>
<event>
 10      0 +2.8251000e-06 1.76337700e+02 7.54677100e-03 1.11764900e-01
        4 -1    0    0  501    0 +0.00000000000e+00 +0.00000000000e+00 +5.37641722360e+01  5.37641722360e+01  0.00000000000e+00 0.0000e+00 -1.0000e+00
        2 -1    0    0  502    0 +0.00000000000e+00 +0.00000000000e+00 -7.13830951070e+02  7.13830951070e+02  0.00000000000e+00 0.0000e+00 -1.0000e+00
       24  2    1    2    0    0 +3.02795218986e+01 +3.13253783391e+01 -1.45757231083e+02  1.71863451340e+02  7.99609074431e+01 0.0000e+00 0.0000e+00
        2  1    3    3  503    0 +2.97240473834e+01 +3.99254314539e+01 -3.51834971241e+01  6.09543890094e+01  0.00000000000e+00 0.0000e+00 -1.0000e+00
       -1  1    3    3    0  503 +5.55474515240e-01 -8.60005311479e+00 -1.10573733959e+02  1.10909062331e+02  0.00000000000e+00 0.0000e+00 1.0000e+00
       24  2    1    2    0    0 -3.24788614861e+01 +2.18849974603e+01 -1.04731015765e+02  1.38625734184e+02  8.19431446647e+01 0.0000e+00 0.0000e+00
        2  1    6    6  504    0 -4.91531981713e+01 +1.63767129291e+01 -2.60141086351e+01  5.79738515618e+01  0.00000000000e+00 0.0000e+00 -1.0000e+00
       -1  1    6    6    0  504 +1.66743366852e+01 +5.50828453114e+00 -7.87169071299e+01  8.06518826220e+01  0.00000000000e+00 0.0000e+00 1.0000e+00
        1  1    1    2  501    0 +8.33273827473e+01 +2.39182763166e+01 -2.26418074199e+02  2.42447274642e+02  0.00000000000e+00 0.0000e+00 -1.0000e+00
        3  1    1    2  502    0 -8.11280431598e+01 -7.71286521160e+01 -1.83160457787e+02  2.14658663140e+02  0.00000000000e+00 0.0000e+00 -1.0000e+00
#  0.1300000e+05  0.1300000e+05  0.1300000e+05  0.1300000e+05
<mgrwt>
<rscale>  2 0.14892386e+03</rscale>
<asrwt>0</asrwt>
<pdfrwt beam="1">  1        2 0.10982015e+00 0.17633772e+03</pdfrwt>
<pdfrwt beam="2">  1        4 0.82714111e-02 0.89705996e+02</pdfrwt>
<totfact> 0.31381926e+01</totfact>
</mgrwt>
<clustering>
<clus scale="   87.597">  3  5 -1 -1</clus>
<clus scale="   89.706">  1  4  2 -1</clus>
<clus scale="  116.777">  1  6  2 -1</clus>
<clus scale="  176.338">  2  3  1 -1</clus>
</clustering>
<rwgt>
  <wgt id="1">3.59485e-06</wgt>
  <wgt id="2">2.30903e-06</wgt>
  <wgt id="3">1.61209e-06</wgt>
  <wgt id="4">4.39829e-06</wgt>
  <wgt id="5">2.8251e-06</wgt>
  <wgt id="6">1.9724e-06</wgt>
  <wgt id="7">4.88919e-06</wgt>
  <wgt id="8">3.14041e-06</wgt>
  <wgt id="9">2.19254e-06</wgt>
  <wgt id="10">2.8251e-06</wgt>
  <wgt id="11">2.8251e-06</wgt>
  <wgt id="12">2.8251e-06</wgt>
  <wgt id="13">2.8251e-06</wgt>
  <wgt id="14">2.82939e-06</wgt>
  <wgt id="15">2.82159e-06</wgt>
  <wgt id="16">2.82493e-06</wgt>
  <wgt id="17">2.82526e-06</wgt>
  <wgt id="18">2.82134e-06</wgt>
  <wgt id="19">2.83069e-06</wgt>
  <wgt id="20">2.81977e-06</wgt>
  <wgt id="21">2.8287e-06</wgt>
  <wgt id="22">2.82439e-06</wgt>
  <wgt id="23">2.82613e-06</wgt>
  <wgt id="24">2.82039e-06</wgt>
  <wgt id="25">2.82784e-06</wgt>
  <wgt id="26">2.83094e-06</wgt>
  <wgt id="27">2.81716e-06</wgt>
  <wgt id="28">2.83932e-06</wgt>
  <wgt id="29">2.81997e-06</wgt>
  <wgt id="30">2.84016e-06</wgt>
  <wgt id="31">2.80053e-06</wgt>
  <wgt id="32">2.82306e-06</wgt>
  <wgt id="33">2.82702e-06</wgt>
  <wgt id="34">2.79794e-06</wgt>
  <wgt id="35">2.87265e-06</wgt>
  <wgt id="36">2.84832e-06</wgt>
  <wgt id="37">2.81168e-06</wgt>
  <wgt id="38">2.82674e-06</wgt>
  <wgt id="39">2.82414e-06</wgt>
  <wgt id="40">2.82765e-06</wgt>
  <wgt id="41">2.8259e-06</wgt>
  <wgt id="42">2.8275e-06</wgt>
  <wgt id="43">2.82245e-06</wgt>
  <wgt id="44">2.83225e-06</wgt>
  <wgt id="45">2.82233e-06</wgt>
  <wgt id="46">2.8278e-06</wgt>
  <wgt id="47">2.8238e-06</wgt>
  <wgt id="48">2.80838e-06</wgt>
  <wgt id="49">2.83418e-06</wgt>
  <wgt id="50">2.81628e-06</wgt>
  <wgt id="51">2.815e-06</wgt>
  <wgt id="52">2.82342e-06</wgt>
  <wgt id="53">2.82557e-06</wgt>
</rwgt>
</event>
<event>
 10      0 +2.8251000e-06 4.92134200e+02 7.54677100e-03 9.87100700e-02
        2 -1    0    0  501    0 +0.00000000000e+00 +0.00000000000e+00 +7.03725020730e+02  7.03725020730e+02  0.00000000000e+00 0.0000e+00 -1.0000e+00
        2 -1    0    0  502    0 +0.00000000000e+00 +0.00000000000e+00 -1.46870552510e+03  1.46870552510e+03  0.00000000000e+00 0.0000e+00 -1.0000e+00
       24  2    1    2    0    0 +1.52204348198e+02 -1.08806210310e+01 -7.59149006146e+01  1.86707715089e+02  7.62374397134e+01 0.0000e+00 0.0000e+00
        2  1    3    3  503    0 +4.37671447934e+01 +2.82618136547e+01 -4.08596337635e+01  6.62102918412e+01  0.00000000000e+00 0.0000e+00 -1.0000e+00
       -1  1    3    3    0  503 +1.08437203405e+02 -3.91424346857e+01 -3.50552668511e+01  1.20497423248e+02  0.00000000000e+00 0.0000e+00 1.0000e+00
       24  2    1    2    0    0 -2.55845122621e+02 -3.27013869952e+02 +1.64937317147e+02  4.54273959687e+02  8.22539600989e+01 0.0000e+00 0.0000e+00
        4  1    6    6  504    0 -1.18143049745e+02 -2.04568958607e+02 +1.18284675962e+02  2.64192171717e+02  0.00000000000e+00 0.0000e+00 -1.0000e+00
       -3  1    6    6    0  504 -1.37702072876e+02 -1.22444911344e+02 +4.66526411849e+01  1.90081787970e+02  0.00000000000e+00 0.0000e+00 1.0000e+00
        1  1    1    2  501    0 -2.03525421722e+02 -2.60968237863e+02 -7.88607046868e+02  8.55235694315e+02  0.00000000000e+00 0.0000e+00 -1.0000e+00
        1  1    1    2  502    0 +3.07166196144e+02 +5.98862728846e+02 -6.53958740347e+01  6.76213176739e+02  0.00000000000e+00 0.0000e+00 -1.0000e+00
#  0.1300000e+05  0.1300000e+05  0.1300000e+05  0.1300000e+05
<mgrwt>
<rscale>  2 0.37770459e+03</rscale>
<asrwt>0</asrwt>
<pdfrwt beam="1">  1        2 0.10826539e+00 0.49213416e+03</pdfrwt>
<pdfrwt beam="2">  1        2 0.22595470e+00 0.17074913e+03</pdfrwt>
<totfact> 0.93993850e-01</totfact>
</mgrwt>
<clustering>
<clus scale="  170.749">  2  3  1 -1</clus>
<clus scale="  289.372">  2  5  1 -1</clus>
<clus scale="  485.519">  2  6  1 -1</clus>
<clus scale="  492.134">  1  3  2 -1</clus>
</clustering>
<rwgt>
  <wgt id="1">4.83197e-06</wgt>
  <wgt id="2">3.2951e-06</wgt>
  <wgt id="3">2.3945e-06</wgt>
  <wgt id="4">4.14275e-06</wgt>
  <wgt id="5">2.8251e-06</wgt>
  <wgt id="6">2.05295e-06</wgt>
  <wgt id="7">3.61685e-06</wgt>
  <wgt id="8">2.46647e-06</wgt>
  <wgt id="9">1.79234e-06</wgt>
  <wgt id="10">2.8251e-06</wgt>
  <wgt id="11">2.8251e-06</wgt>
  <wgt id="12">2.8251e-06</wgt>
  <wgt id="13">2.8251e-06</wgt>
  <wgt id="14">2.82808e-06</wgt>
  <wgt id="15">2.82274e-06</wgt>
  <wgt id="16">2.8119e-06</wgt>
  <wgt id="17">2.83987e-06</wgt>
  <wgt id="18">2.81142e-06</wgt>
  <wgt id="19">2.8455e-06</wgt>
  <wgt id="20">2.81498e-06</wgt>
  <wgt id="21">2.83199e-06</wgt>
  <wgt id="22">2.83296e-06</wgt>
  <wgt id="23">2.81398e-06</wgt>
  <wgt id="24">2.86826e-06</wgt>
  <wgt id="25">2.79857e-06</wgt>
  <wgt id="26">2.82498e-06</wgt>
  <wgt id="27">2.82537e-06</wgt>
  <wgt id="28">2.87604e-06</wgt>
  <wgt id="29">2.80676e-06</wgt>
  <wgt id="30">2.83073e-06</wgt>
  <wgt id="31">2.81805e-06</wgt>
  <wgt id="32">2.82771e-06</wgt>
  <wgt id="33">2.82269e-06</wgt>
  <wgt id="34">2.78549e-06</wgt>
  <wgt id="35">2.89857e-06</wgt>
  <wgt id="36">2.84771e-06</wgt>
  <wgt id="37">2.81283e-06</wgt>
  <wgt id="38">2.8135e-06</wgt>
  <wgt id="39">2.83113e-06</wgt>
  <wgt id="40">2.82765e-06</wgt>
  <wgt id="41">2.82294e-06</wgt>
  <wgt id="42">2.84922e-06</wgt>
  <wgt id="43">2.78572e-06</wgt>
  <wgt id="44">2.83282e-06</wgt>
  <wgt id="45">2.82235e-06</wgt>
  <wgt id="46">2.82417e-06</wgt>
  <wgt id="47">2.82582e-06</wgt>
  <wgt id="48">2.81838e-06</wgt>
  <wgt id="49">2.83214e-06</wgt>
  <wgt id="50">2.81599e-06</wgt>
  <wgt id="51">2.83855e-06</wgt>
  <wgt id="52">2.83873e-06</wgt>
  <wgt id="53">2.82168e-06</wgt>
</rwgt>
</event>
<event>
 11      0 +2.8251000e-06 3.68596100e+02 7.54677100e-03 1.01777600e-01
        4 -1    0    0  503    0 +0.00000000000e+00 +0.00000000000e+00 +9.13993089380e+02  9.13993089380e+02  0.00000000000e+00 0.0000e+00 -1.0000e+00
        2 -1    0    0  502    0 +0.00000000000e+00 +0.00000000000e+00 -2.84052862570e+02  2.84052862570e+02  0.00000000000e+00 0.0000e+00 -1.0000e+00
       24  2    1    2    0    0 -9.42099842153e+01 +1.30994112885e+02 -5.27187951579e+01  1.87819389916e+02  8.03857769073e+01 0.0000e+00 0.0000e+00
       12  1    3    3    0    0 -1.06373798209e+02 +1.20529211541e+02 -5.80414442670e+01  1.70913677138e+02  0.00000000000e+00 0.0000e+00 -1.0000e+00
      -11  1    3    3    0    0 +1.21638139932e+01 +1.04649013439e+01 +5.32264910915e+00  1.69057127782e+01  0.00000000000e+00 0.0000e+00 1.0000e+00
       24  2    1    2    0    0 -8.32946890505e+01 -1.39305062032e+02 +3.95772472349e+02  4.34555925381e+02  7.65447377849e+01 0.0000e+00 0.0000e+00
        2  1    6    6  504    0 -3.60325155507e+01 -4.24668466397e+00 +7.49153005257e+01  8.32386854798e+01  0.00000000000e+00 0.0000e+00 -1.0000e+00
       -1  1    6    6    0  504 -4.72621734998e+01 -1.35058377368e+02 +3.20857171823e+02  3.51317239901e+02  0.00000000000e+00 0.0000e+00 1.0000e+00
       21  1    1    2  503  501 +1.94062612580e+01 +6.00747751149e+01 +1.73405594860e+02  1.84540190500e+02  0.00000000000e+00 0.0000e+00 1.0000e+00
        1  1    1    2  501    0 +1.58872321920e+02 +4.32372116898e+01 -7.43351093522e+01  1.80653202654e+02  0.00000000000e+00 0.0000e+00 -1.0000e+00
        3  1    1    2  502    0 -7.73909911833e-01 -9.50010376581e+01 +1.87816064111e+02  2.10477243499e+02  0.00000000000e+00 0.0000e+00 -1.0000e+00
#  0.1300000e+05  0.1300000e+05  0.6313146e+02  0.1300000e+05  0.1300000e+05
<mgrwt>
<rscale>  2 0.29694763e+03</rscale>
<asrwt>  1 0.63131463e+02</asrwt>
<pdfrwt beam="1">  1        2 0.43700440e-01 0.15526271e+03</pdfrwt>
<pdfrwt beam="2">  2        4        4 0.14061432e+00 0.11032406e+00 0.63131463e+02 0.36859613e+03</pdfrwt>
<totfact> 0.25807967e-02</totfact>
</mgrwt>
<clustering>
<clus scale="   63.131">  1  5  2 -1</clus>
<clus scale="   72.597">  3  7 -1 -1</clus>
<clus scale="  155.263">  2  4  1 -1</clus>
<clus scale="  124.839">  2  6  1 -1</clus>
<clus scale="  368.596">  2  3  1 -1</clus>
</clustering>
<rwgt>
  <wgt id="1">4.10463e-06</wgt>
  <wgt id="2">2.76051e-06</wgt>
  <wgt id="3">1.98717e-06</wgt>
  <wgt id="4">4.20066e-06</wgt>
  <wgt id="5">2.8251e-06</wgt>
  <wgt id="6">2.03366e-06</wgt>
  <wgt id="7">4.15964e-06</wgt>
  <wgt id="8">2.79751e-06</wgt>
  <wgt id="9">2.0138e-06</wgt>
  <wgt id="10">3.65937e-06</wgt>
  <wgt id="11">2.8251e-06</wgt>
  <wgt id="12">2.30538e-06</wgt>
  <wgt id="13">2.8251e-06</wgt>
  <wgt id="14">2.83529e-06</wgt>
  <wgt id="15">2.81684e-06</wgt>
  <wgt id="16">2.82992e-06</wgt>
  <wgt id="17">2.81973e-06</wgt>
  <wgt id="18">2.82131e-06</wgt>
  <wgt id="19">2.83085e-06</wgt>
  <wgt id="20">2.82237e-06</wgt>
  <wgt id="21">2.82712e-06</wgt>
  <wgt id="22">2.82318e-06</wgt>
  <wgt id="23">2.82797e-06</wgt>
  <wgt id="24">2.81328e-06</wgt>
  <wgt id="25">2.83233e-06</wgt>
  <wgt id="26">2.82862e-06</wgt>
  <wgt id="27">2.82044e-06</wgt>
  <wgt id="28">2.83168e-06</wgt>
  <wgt id="29">2.82269e-06</wgt>
  <wgt id="30">2.7701e-06</wgt>
  <wgt id="31">2.89441e-06</wgt>
  <wgt id="32">2.83526e-06</wgt>
  <wgt id="33">2.81567e-06</wgt>
  <wgt id="34">2.89603e-06</wgt>
  <wgt id="35">2.70525e-06</wgt>
  <wgt id="36">2.76185e-06</wgt>
  <wgt id="37">2.86648e-06</wgt>
  <wgt id="38">2.78717e-06</wgt>
  <wgt id="39">2.84338e-06</wgt>
  <wgt id="40">2.81045e-06</wgt>
  <wgt id="41">2.84421e-06</wgt>
  <wgt id="42">2.80971e-06</wgt>
  <wgt id="43">2.84879e-06</wgt>
  <wgt id="44">2.81665e-06</wgt>
  <wgt id="45">2.82854e-06</wgt>
  <wgt id="46">2.8331e-06</wgt>
  <wgt id="47">2.82082e-06</wgt>
  <wgt id="48">2.82787e-06</wgt>
  <wgt id="49">2.82121e-06</wgt>
  <wgt id="50">2.80157e-06</wgt>
  <wgt id="51">2.87999e-06</wgt>
  <wgt id="52">2.83003e-06</wgt>
  <wgt id="53">2.82375e-06</wgt>
</rwgt>
</event>
<event>
 11      0 +2.8251000e-06 1.67885900e+02 7.54677100e-03 1.11932500e-01
        2 -1    0    0  503    0 +0.00000000000e+00 +0.00000000000e+00 +3.01038714190e+03  3.01038714190e+03  0.00000000000e+00 0.0000e+00 -1.0000e+00
        2 -1    0    0  502    0 +0.00000000000e+00 +0.00000000000e+00 -2.51926101220e+02  2.51926101220e+02  0.00000000000e+00 0.0000e+00 -1.0000e+00
       24  2    1    2    0    0 -7.55479006887e+01 -1.01125324331e+02 +1.47241557177e+03  1.47990739819e+03  7.86414311666e+01 0.0000e+00 0.0000e+00
        4  1    3    3  504    0 -2.64363170510e+01 -5.83901355239e+01 +1.09837743379e+03  1.10024600606e+03  0.00000000000e+00 0.0000e+00 -1.0000e+00
       -3  1    3    3    0  504 -4.91115836377e+01 -4.27351888075e+01 +3.74038137982e+02  3.79661392131e+02  0.00000000000e+00 0.0000e+00 1.0000e+00
       24  2    1    2    0    0 +5.35610783049e+01 +2.91652126100e+01 +2.87823999420e+00  1.02492371953e+02  8.23225564911e+01 0.0000e+00 0.0000e+00
        4  1    6    6  505    0 +4.15110496384e+01 +1.29911052418e+01 +4.07383671836e+01  5.95948875179e+01  0.00000000000e+00 0.0000e+00 -1.0000e+00
       -3  1    6    6    0  505 +1.20500286665e+01 +1.61741073682e+01 -3.78601271894e+01  4.28974844347e+01  0.00000000000e+00 0.0000e+00 1.0000e+00
       21  1    1    2  503  501 -3.18096656464e+01 -3.31334762416e+01 +9.06880121149e+01  1.01656271906e+02  0.00000000000e+00 0.0000e+00 -1.0000e+00
        1  1    1    2  501    0 -8.11741966838e+01 +8.88740629818e+01 +1.35842025038e+03  1.36374243387e+03  0.00000000000e+00 0.0000e+00 -1.0000e+00
        1  1    1    2  502    0 +1.34970684714e+02 +1.62195249812e+01 -1.65941033584e+02  2.14514767207e+02  0.00000000000e+00 0.0000e+00 -1.0000e+00
#  0.1300000e+05  0.1300000e+05  0.4593128e+02  0.1300000e+05  0.1300000e+05
<mgrwt>
<rscale>  2 0.14736627e+03</rscale>
<asrwt>  1 0.45931276e+02</asrwt>
<pdfrwt beam="1">  2        2        2 0.46313648e+00 0.43825884e+00 0.45931276e+02 0.16788588e+03</pdfrwt>
<pdfrwt beam="2">  1        2 0.38757862e-01 0.99666646e+02</pdfrwt>
<totfact> 0.74563002e-02</totfact>
</mgrwt>
<clustering>
<clus scale="   45.931">  1  5  2 -1</clus>
<clus scale="   99.667">  2  4  1 -1</clus>
<clus scale="  119.447">  2  6  1 -1</clus>
<clus scale="  147.372">  2  7  1 -1</clus>
<clus scale="  167.886">  1  3  2 -1</clus>
</clustering>
<rwgt>
  <wgt id="1">5.32028e-06</wgt>
  <wgt id="2">3.41462e-06</wgt>
  <wgt id="3">2.38277e-06</wgt>
  <wgt id="4">4.40176e-06</wgt>
  <wgt id="5">2.8251e-06</wgt>
  <wgt id="6">1.9714e-06</wgt>
  <wgt id="7">3.7189e-06</wgt>
  <wgt id="8">2.38683e-06</wgt>
  <wgt id="9">1.66556e-06</wgt>
  <wgt id="10">3.72399e-06</wgt>
  <wgt id="11">2.8251e-06</wgt>
  <wgt id="12">2.28145e-06</wgt>
  <wgt id="13">2.8251e-06</wgt>
  <wgt id="14">2.82881e-06</wgt>
  <wgt id="15">2.8221e-06</wgt>
  <wgt id="16">2.81459e-06</wgt>
  <wgt id="17">2.83685e-06</wgt>
  <wgt id="18">2.81068e-06</wgt>
  <wgt id="19">2.84657e-06</wgt>
  <wgt id="20">2.81786e-06</wgt>
  <wgt id="21">2.83001e-06</wgt>
  <wgt id="22">2.83338e-06</wgt>
  <wgt id="23">2.81353e-06</wgt>
  <wgt id="24">2.86967e-06</wgt>
  <wgt id="25">2.79768e-06</wgt>
  <wgt id="26">2.82444e-06</wgt>
  <wgt id="27">2.82604e-06</wgt>
  <wgt id="28">2.8387e-06</wgt>
  <wgt id="29">2.81995e-06</wgt>
  <wgt id="30">2.82843e-06</wgt>
  <wgt id="31">2.82033e-06</wgt>
  <wgt id="32">2.81936e-06</wgt>
  <wgt id="33">2.83061e-06</wgt>
  <wgt id="34">2.78927e-06</wgt>
  <wgt id="35">2.89085e-06</wgt>
  <wgt id="36">2.83522e-06</wgt>
  <wgt id="37">2.82058e-06</wgt>
  <wgt id="38">2.81802e-06</wgt>
  <wgt id="39">2.829e-06</wgt>
  <wgt id="40">2.8409e-06</wgt>
  <wgt id="41">2.80935e-06</wgt>
  <wgt id="42">2.84338e-06</wgt>
  <wgt id="43">2.79158e-06</wgt>
  <wgt id="44">2.83607e-06</wgt>
  <wgt id="45">2.82069e-06</wgt>
  <wgt id="46">2.82361e-06</wgt>
  <wgt id="47">2.82638e-06</wgt>
  <wgt id="48">2.81227e-06</wgt>
  <wgt id="49">2.83602e-06</wgt>
  <wgt id="50">2.81488e-06</wgt>
  <wgt id="51">2.83653e-06</wgt>
  <wgt id="52">2.83019e-06</wgt>
  <wgt id="53">2.82405e-06</wgt>
</rwgt>
</event>
<event>
 11      0 +2.8251000e-06 3.69334700e+02 7.54677100e-03 1.03928200e-01
        2 -1    0    0  502    0 +0.00000000000e+00 +0.00000000000e+00 +2.66847421760e+02  2.66847421760e+02  0.00000000000e+00 0.0000e+00 -1.0000e+00
        2 -1    0    0  503    0 +0.00000000000e+00 +0.00000000000e+00 -1.22999465490e+03  1.22999465490e+03  0.00000000000e+00 0.0000e+00 -1.0000e+00
       24  2    1    2    0    0 +6.63777539633e+01 +1.11648172220e+02 +1.33842142064e+02  2.03648622740e+02  8.17784933241e+01 0.0000e+00 0.0000e+00
       14  1    3    3    0    0 +1.79255323464e+00 +8.24185403944e+01 +7.65837406288e+01  1.12521546277e+02  0.00000000000e+00 0.0000e+00 -1.0000e+00
      -13  1    3    3    0    0 +6.45852007287e+01 +2.92296318259e+01 +5.72584014350e+01  9.11270764632e+01  0.00000000000e+00 0.0000e+00 1.0000e+00
       24  2    1    2    0    0 +4.53247176302e+00 +1.06395577448e+01 -7.70228742573e+02  7.74576451323e+02  8.11333443731e+01 0.0000e+00 0.0000e+00
        4  1    6    6  504    0 -3.38806450632e+01 -1.07938454556e+01 -4.39339992121e+02  4.40776625840e+02  0.00000000000e+00 0.0000e+00 -1.0000e+00
       -3  1    6    6    0  504 +3.84131168262e+01 +2.14334032004e+01 -3.30888750451e+02  3.33799825483e+02  0.00000000000e+00 0.0000e+00 1.0000e+00
       21  1    1    2  503  501 +4.73735628193e+01 -8.11250322094e+01 -1.71795841495e+02  1.95804332077e+02  0.00000000000e+00 0.0000e+00 -1.0000e+00
        1  1    1    2  501    0 -6.89649435631e+00 +4.86436465230e+01 -1.71853106400e+02  1.78737953890e+02  0.00000000000e+00 0.0000e+00 -1.0000e+00
        1  1    1    2  502    0 -1.11387294189e+02 -8.98063442788e+01 +1.68883152642e+01  1.44074716630e+02  0.00000000000e+00 0.0000e+00 -1.0000e+00
#  0.1300000e+05  0.1300000e+05  0.9172154e+02  0.1300000e+05  0.1300000e+05
<mgrwt>
<rscale>  3 0.25302200e+03</rscale>
<asrwt>0</asrwt>
<pdfrwt beam="1">  1        2 0.41053450e-01 0.36933474e+03</pdfrwt>
<pdfrwt beam="2">  1        2 0.18922995e+00 0.81352825e+02</pdfrwt>
<totfact> 0.45671029e-01</totfact>
</mgrwt>
<clustering>
<clus scale="   49.130">  3  6 -1 -1</clus>
<clus scale="   81.353">  2  4  1 -1</clus>
<clus scale="   91.722">  2  5  1 -1</clus>
<clus scale="  145.758">  2  7  1 -1</clus>
<clus scale="  369.335">  1  3  2 -1</clus>
</clustering>
<rwgt>
  <wgt id="1">5.68802e-06</wgt>
  <wgt id="2">3.0915e-06</wgt>
  <wgt id="3">1.86952e-06</wgt>
  <wgt id="4">5.19788e-06</wgt>
  <wgt id="5">2.8251e-06</wgt>
  <wgt id="6">1.70842e-06</wgt>
  <wgt id="7">4.77783e-06</wgt>
  <wgt id="8">2.5968e-06</wgt>
  <wgt id="9">1.57036e-06</wgt>
  <wgt id="10">2.8251e-06</wgt>
  <wgt id="11">2.8251e-06</wgt>
  <wgt id="12">2.8251e-06</wgt>
  <wgt id="13">2.8251e-06</wgt>
  <wgt id="14">2.82837e-06</wgt>
  <wgt id="15">2.82242e-06</wgt>
  <wgt id="16">2.82152e-06</wgt>
  <wgt id="17">2.82893e-06</wgt>
  <wgt id="18">2.81314e-06</wgt>
  <wgt id="19">2.84288e-06</wgt>
  <wgt id="20">2.81576e-06</wgt>
  <wgt id="21">2.83141e-06</wgt>
  <wgt id="22">2.83146e-06</wgt>
  <wgt id="23">2.81606e-06</wgt>
  <wgt id="24">2.86057e-06</wgt>
  <wgt id="25">2.80323e-06</wgt>
  <wgt id="26">2.82441e-06</wgt>
  <wgt id="27">2.82609e-06</wgt>
  <wgt id="28">2.86409e-06</wgt>
  <wgt id="29">2.81095e-06</wgt>
  <wgt id="30">2.83113e-06</wgt>
  <wgt id="31">2.81729e-06</wgt>
  <wgt id="32">2.82947e-06</wgt>
  <wgt id="33">2.82092e-06</wgt>
  <wgt id="34">2.79175e-06</wgt>
  <wgt id="35">2.88613e-06</wgt>
  <wgt id="36">2.83633e-06</wgt>
  <wgt id="37">2.81921e-06</wgt>
  <wgt id="38">2.81625e-06</wgt>
  <wgt id="39">2.82948e-06</wgt>
  <wgt id="40">2.8262e-06</wgt>
  <wgt id="41">2.82436e-06</wgt>
  <wgt id="42">2.84567e-06</wgt>
  <wgt id="43">2.78787e-06</wgt>
  <wgt id="44">2.83349e-06</wgt>
  <wgt id="45">2.82189e-06</wgt>
  <wgt id="46">2.82355e-06</wgt>
  <wgt id="47">2.82645e-06</wgt>
  <wgt id="48">2.80327e-06</wgt>
  <wgt id="49">2.83739e-06</wgt>
  <wgt id="50">2.81561e-06</wgt>
  <wgt id="51">2.83553e-06</wgt>
  <wgt id="52">2.83049e-06</wgt>
  <wgt id="53">2.82362e-06</wgt>
</rwgt>
</event>
<event>
 10      0 +2.8251000e-06 3.31708500e+02 7.54677100e-03 1.00731500e-01
        2 -1    0    0  502    0 +0.00000000000e+00 +0.00000000000e+00 +7.62713249060e+02  7.62713249060e+02  0.00000000000e+00 0.0000e+00 -1.0000e+00
        2 -1    0    0  501    0 +0.00000000000e+00 +0.00000000000e+00 -1.73976655640e+02  1.73976655640e+02  0.00000000000e+00 0.0000e+00 -1.0000e+00
       24  2    1    2    0    0 -6.93675957958e+01 +1.34925300621e+02 -2.34514524276e+01  1.73363610318e+02  8.05498024046e+01 0.0000e+00 0.0000e+00
       14  1    3    3    0    0 -7.44581486319e+01 +1.43558630382e+02 -2.13382109138e+01  1.63120861633e+02  0.00000000000e+00 0.0000e+00 -1.0000e+00
      -13  1    3    3    0    0 +5.09055283608e+00 -8.63332976085e+00 -2.11324151382e+00  1.02427486854e+01  0.00000000000e+00 0.0000e+00 1.0000e+00
       24  2    1    2    0    0 -1.17219251264e+02 -3.49133686076e+01 +2.73515737278e+02  3.10685416432e+02  8.21904694648e+01 0.0000e+00 0.0000e+00
        2  1    6    6  503    0 -1.22350798088e+02 -1.79954940208e+01 +2.61621849719e+02  2.89377863438e+02  0.00000000000e+00 0.0000e+00 -1.0000e+00
       -1  1    6    6    0  503 +5.13154682380e+00 -1.69178745869e+01 +1.18938875590e+01  2.13075529944e+01  0.00000000000e+00 0.0000e+00 1.0000e+00
        1  1    1    2  501    0 +5.38200568783e+01 -1.36197603418e+02 +2.47461302263e+02  2.87547355782e+02  0.00000000000e+00 0.0000e+00 -1.0000e+00
        1  1    1    2  502    0 +1.32766790182e+02 +3.61856714050e+01 +9.12110063069e+01  1.65093522168e+02  0.00000000000e+00 0.0000e+00 -1.0000e+00
#  0.1300000e+05  0.1300000e+05  0.1300000e+05  0.1300000e+05
<mgrwt>
<rscale>  2 0.32177614e+03</rscale>
<asrwt>0</asrwt>
<pdfrwt beam="1">  1        2 0.11734050e+00 0.29372822e+03</pdfrwt>
<pdfrwt beam="2">  1        2 0.26765639e-01 0.33170847e+03</pdfrwt>
<totfact> 0.11903756e+01</totfact>
</mgrwt>
<clustering>
<clus scale="  137.813">  3  6 -1 -1</clus>
<clus scale="  146.482">  4  5 -1 -1</clus>
<clus scale="  293.728">  1  4  2 -1</clus>
<clus scale="  331.708">  1  3  2 -1</clus>
</clustering>
<rwgt>
  <wgt id="1">4.24958e-06</wgt>
  <wgt id="2">2.87161e-06</wgt>
  <wgt id="3">2.07384e-06</wgt>
  <wgt id="4">4.18074e-06</wgt>
  <wgt id="5">2.8251e-06</wgt>
  <wgt id="6">2.04025e-06</wgt>
  <wgt id="7">4.07278e-06</wgt>
  <wgt id="8">2.75215e-06</wgt>
  <wgt id="9">1.98756e-06</wgt>
  <wgt id="10">2.8251e-06</wgt>
  <wgt id="11">2.8251e-06</wgt>
  <wgt id="12">2.8251e-06</wgt>
  <wgt id="13">2.8251e-06</wgt>
  <wgt id="14">2.8286e-06</wgt>
  <wgt id="15">2.82216e-06</wgt>
  <wgt id="16">2.8278e-06</wgt>
  <wgt id="17">2.82183e-06</wgt>
  <wgt id="18">2.81436e-06</wgt>
  <wgt id="19">2.8409e-06</wgt>
  <wgt id="20">2.81531e-06</wgt>
  <wgt id="21">2.83158e-06</wgt>
  <wgt id="22">2.83018e-06</wgt>
  <wgt id="23">2.8178e-06</wgt>
  <wgt id="24">2.85409e-06</wgt>
  <wgt id="25">2.80712e-06</wgt>
  <wgt id="26">2.82408e-06</wgt>
  <wgt id="27">2.8264e-06</wgt>
  <wgt id="28">2.8552e-06</wgt>
  <wgt id="29">2.81406e-06</wgt>
  <wgt id="30">2.83222e-06</wgt>
  <wgt id="31">2.81548e-06</wgt>
  <wgt id="32">2.83006e-06</wgt>
  <wgt id="33">2.82027e-06</wgt>
  <wgt id="34">2.79631e-06</wgt>
  <wgt id="35">2.87729e-06</wgt>
  <wgt id="36">2.83454e-06</wgt>
  <wgt id="37">2.82024e-06</wgt>
  <wgt id="38">2.81722e-06</wgt>
  <wgt id="39">2.82875e-06</wgt>
  <wgt id="40">2.82543e-06</wgt>
  <wgt id="41">2.82533e-06</wgt>
  <wgt id="42">2.84244e-06</wgt>
  <wgt id="43">2.7909e-06</wgt>
  <wgt id="44">2.83442e-06</wgt>
  <wgt id="45">2.82141e-06</wgt>
  <wgt id="46">2.82337e-06</wgt>
  <wgt id="47">2.82665e-06</wgt>
  <wgt id="48">2.79623e-06</wgt>
  <wgt id="49">2.83926e-06</wgt>
  <wgt id="50">2.81377e-06</wgt>
  <wgt id="51">2.83391e-06</wgt>
  <wgt id="52">2.8261e-06</wgt>
  <wgt id="53">2.82457e-06</wgt>
</rwgt>
</event>
<event>
 11      0 +2.8251000e-06 2.83044200e+02 7.54677100e-03 1.06148400e-01
        2 -1    0    0  503    0 +0.00000000000e+00 +0.00000000000e+00 +2.74831357460e+03  2.74831357460e+03  0.00000000000e+00 0.0000e+00 -1.0000e+00
        2 -1    0    0  501    0 +0.00000000000e+00 +0.00000000000e+00 -8.45827210260e+02  8.45827210260e+02  0.00000000000e+00 0.0000e+00 -1.0000e+00
       24  2    1    2    0    0 +2.59734690948e+02 -1.26203058414e+02 -6.97805879628e+02  7.59341001722e+02  7.92236682855e+01 0.0000e+00 0.0000e+00
        4  1    3    3  504    0 +2.39130436525e+02 -9.56032921925e+01 -6.48480284631e+02  6.97746397128e+02  0.00000000000e+00 0.0000e+00 -1.0000e+00
       -3  1    3    3    0  504 +2.06042544233e+01 -3.05997662214e+01 -4.93255949977e+01  6.15946045934e+01  0.00000000000e+00 0.0000e+00 1.0000e+00
       24  2    1    2    0    0 -4.48257356932e+01 -5.63655920277e+01 +9.60854990145e+02  9.66855238862e+02  7.98768695226e+01 0.0000e+00 0.0000e+00
       12  1    6    6    0    0 -2.27823702402e+01 -6.87530739778e+01 +4.90253162490e+02  4.95574600748e+02  0.00000000000e+00 0.0000e+00 -1.0000e+00
      -11  1    6    6    0    0 -2.20433654530e+01 +1.23874819501e+01 +4.70601827655e+02  4.71280638114e+02  0.00000000000e+00 0.0000e+00 1.0000e+00
       21  1    1    2  503  502 +8.02086650527e+01 +1.26510082253e+01 +4.08080486176e+02  4.16080714714e+02  0.00000000000e+00 0.0000e+00 -1.0000e+00
        1  1    1    2  501    0 -6.42984973826e+01 +2.22702982481e+02 +1.18892913513e+03  1.21131474173e+03  0.00000000000e+00 0.0000e+00 -1.0000e+00
        1  1    1    2  502    0 -2.30819122925e+02 -5.27853402647e+01 +4.24276325142e+01  2.40549087829e+02  0.00000000000e+00 0.0000e+00 -1.0000e+00
#  0.1300000e+05  0.1300000e+05  0.8093017e+02  0.1300000e+05  0.1300000e+05
<mgrwt>
<rscale>  2 0.21598624e+03</rscale>
<asrwt>  1 0.80930169e+02</asrwt>
<pdfrwt beam="1">  2        2        2 0.42281747e+00 0.35772111e+00 0.80930169e+02 0.28304420e+03</pdfrwt>
<pdfrwt beam="2">  1        2 0.13012726e+00 0.28304420e+03</pdfrwt>
<totfact> 0.22529012e-02</totfact>
</mgrwt>
<clustering>
<clus scale="   80.930">  1  5  2 -1</clus>
<clus scale="   95.971">  1  4  2 -1</clus>
<clus scale="  187.464">  1  6  2 -1</clus>
<clus scale="  271.379">  1  7  2 -1</clus>
<clus scale="  283.044">  1  3  2 -1</clus>
</clustering>
<rwgt>
  <wgt id="1">5.36717e-06</wgt>
  <wgt id="2">3.53847e-06</wgt>
  <wgt id="3">2.51324e-06</wgt>
  <wgt id="4">4.28512e-06</wgt>
  <wgt id="5">2.8251e-06</wgt>
  <wgt id="6">2.00656e-06</wgt>
  <wgt id="7">3.5352e-06</wgt>
  <wgt id="8">2.33069e-06</wgt>
  <wgt id="9">1.6554e-06</wgt>
  <wgt id="10">3.61529e-06</wgt>
  <wgt id="11">2.8251e-06</wgt>
  <wgt id="12">2.32273e-06</wgt>
  <wgt id="13">2.8251e-06</wgt>
  <wgt id="14">2.82847e-06</wgt>
  <wgt id="15">2.82258e-06</wgt>
  <wgt id="16">2.80483e-06</wgt>
  <wgt id="17">2.84782e-06</wgt>
  <wgt id="18">2.80937e-06</wgt>
  <wgt id="19">2.84864e-06</wgt>
  <wgt id="20">2.81607e-06</wgt>
  <wgt id="21">2.83133e-06</wgt>
  <wgt id="22">2.83447e-06</wgt>
  <wgt id="23">2.81187e-06</wgt>
  <wgt id="24">2.87614e-06</wgt>
  <wgt id="25">2.79392e-06</wgt>
  <wgt id="26">2.82515e-06</wgt>
  <wgt id="27">2.82527e-06</wgt>
  <wgt id="28">2.85995e-06</wgt>
  <wgt id="29">2.81224e-06</wgt>
  <wgt id="30">2.82865e-06</wgt>
  <wgt id="31">2.82076e-06</wgt>
  <wgt id="32">2.81993e-06</wgt>
  <wgt id="33">2.83019e-06</wgt>
  <wgt id="34">2.78279e-06</wgt>
  <wgt id="35">2.9038e-06</wgt>
  <wgt id="36">2.85018e-06</wgt>
  <wgt id="37">2.81207e-06</wgt>
  <wgt id="38">2.8137e-06</wgt>
  <wgt id="39">2.83147e-06</wgt>
  <wgt id="40">2.83845e-06</wgt>
  <wgt id="41">2.81219e-06</wgt>
  <wgt id="42">2.84846e-06</wgt>
  <wgt id="43">2.78804e-06</wgt>
  <wgt id="44">2.835e-06</wgt>
  <wgt id="45">2.82148e-06</wgt>
  <wgt id="46">2.8246e-06</wgt>
  <wgt id="47">2.82558e-06</wgt>
  <wgt id="48">2.82923e-06</wgt>
  <wgt id="49">2.82946e-06</wgt>
  <wgt id="50">2.81683e-06</wgt>
  <wgt id="51">2.83892e-06</wgt>
  <wgt id="52">2.84075e-06</wgt>
  <wgt id="53">2.82142e-06</wgt>
</rwgt>
</event>
<event>
 10      0 +2.8251000e-06 3.50320500e+02 7.54677100e-03 1.01128400e-01
        2 -1    0    0  502    0 +0.00000000000e+00 +0.00000000000e+00 +1.92007807120e+03  1.92007807120e+03  0.00000000000e+00 0.0000e+00 -1.0000e+00
        4 -1    0    0  501    0 +0.00000000000e+00 +0.00000000000e+00 -5.90884074490e+01  5.90884074490e+01  0.00000000000e+00 0.0000e+00 -1.0000e+00
       24  2    1    2    0    0 -5.46380106453e+01 +4.37289088028e+01 +9.35205580148e+02  9.41338792169e+02  8.13124518750e+01 0.0000e+00 0.0000e+00
        4  1    3    3  503    0 -2.59179349726e+01 -2.56515946297e+00 +7.46949881493e+01  7.91053768775e+01  0.00000000000e+00 0.0000e+00 -1.0000e+00
       -3  1    3    3    0  503 -2.87200756726e+01 +4.62940682658e+01 +8.60510591998e+02  8.62233415291e+02  0.00000000000e+00 0.0000e+00 1.0000e+00
       24  2    1    2    0    0 +4.40504538226e+01 +1.36901589394e+02 +1.35074853092e+02  2.12848401006e+02  7.98544814790e+01 0.0000e+00 0.0000e+00
       12  1    6    6    0    0 +3.75512265354e+01 +1.43669916193e+02 +1.38302394700e+02  2.02925335562e+02  0.00000000000e+00 0.0000e+00 -1.0000e+00
      -11  1    6    6    0    0 +6.49922728721e+00 -6.76832679822e+00 -3.22754160799e+00  9.92306544418e+00  0.00000000000e+00 0.0000e+00 1.0000e+00
        1  1    1    2  501    0 +7.92169754928e+01 -1.13390110766e+02 +4.30449839486e+02  4.52127980487e+02  0.00000000000e+00 0.0000e+00 -1.0000e+00
        3  1    1    2  502    0 -6.86294186701e+01 -6.72403874308e+01 +3.60259391025e+02  3.72851304987e+02  0.00000000000e+00 0.0000e+00 -1.0000e+00
#  0.1300000e+05  0.1300000e+05  0.1300000e+05  0.1300000e+05
<mgrwt>
<rscale>  2 0.31206058e+03</rscale>
<asrwt>0</asrwt>
<pdfrwt beam="1">  1        2 0.29539663e+00 0.35032054e+03</pdfrwt>
<pdfrwt beam="2">  1        4 0.90905242e-02 0.22057629e+03</pdfrwt>
<totfact> 0.47550003e+00</totfact>
</mgrwt>
<clustering>
<clus scale="   95.978">  3  6 -1 -1</clus>
<clus scale="  138.630">  4  5 -1 -1</clus>
<clus scale="  220.576">  2  3  1 -1</clus>
<clus scale="  350.321">  1  3  2 -1</clus>
</clustering>
<rwgt>
  <wgt id="1">4.05184e-06</wgt>
  <wgt id="2">2.73318e-06</wgt>
  <wgt id="3">1.97144e-06</wgt>
  <wgt id="4">4.18811e-06</wgt>
  <wgt id="5">2.8251e-06</wgt>
  <wgt id="6">2.03774e-06</wgt>
  <wgt id="7">4.15446e-06</wgt>
  <wgt id="8">2.8024e-06</wgt>
  <wgt id="9">2.02137e-06</wgt>
  <wgt id="10">2.8251e-06</wgt>
  <wgt id="11">2.8251e-06</wgt>
  <wgt id="12">2.8251e-06</wgt>
  <wgt id="13">2.8251e-06</wgt>
  <wgt id="14">2.83031e-06</wgt>
  <wgt id="15">2.82083e-06</wgt>
  <wgt id="16">2.81509e-06</wgt>
  <wgt id="17">2.83626e-06</wgt>
  <wgt id="18">2.81947e-06</wgt>
  <wgt id="19">2.83338e-06</wgt>
  <wgt id="20">2.82512e-06</wgt>
  <wgt id="21">2.82505e-06</wgt>
  <wgt id="22">2.8265e-06</wgt>
  <wgt id="23">2.82312e-06</wgt>
  <wgt id="24">2.83056e-06</wgt>
  <wgt id="25">2.82154e-06</wgt>
  <wgt id="26">2.83184e-06</wgt>
  <wgt id="27">2.81592e-06</wgt>
  <wgt id="28">2.839e-06</wgt>
  <wgt id="29">2.81993e-06</wgt>
  <wgt id="30">2.83982e-06</wgt>
  <wgt id="31">2.80197e-06</wgt>
  <wgt id="32">2.81875e-06</wgt>
  <wgt id="33">2.83109e-06</wgt>
  <wgt id="34">2.79382e-06</wgt>
  <wgt id="35">2.8808e-06</wgt>
  <wgt id="36">2.84003e-06</wgt>
  <wgt id="37">2.81677e-06</wgt>
  <wgt id="38">2.82774e-06</wgt>
  <wgt id="39">2.8243e-06</wgt>
  <wgt id="40">2.8326e-06</wgt>
  <wgt id="41">2.82005e-06</wgt>
  <wgt id="42">2.82725e-06</wgt>
  <wgt id="43">2.82476e-06</wgt>
  <wgt id="44">2.82925e-06</wgt>
  <wgt id="45">2.82361e-06</wgt>
  <wgt id="46">2.82565e-06</wgt>
  <wgt id="47">2.82477e-06</wgt>
  <wgt id="48">2.8268e-06</wgt>
  <wgt id="49">2.82843e-06</wgt>
  <wgt id="50">2.82252e-06</wgt>
  <wgt id="51">2.8104e-06</wgt>
  <wgt id="52">2.83048e-06</wgt>
  <wgt id="53">2.82408e-06</wgt>
</rwgt>
</event>
<event>
 11      0 +2.8251000e-06 1.01681600e+03 7.54677100e-03 9.17701700e-02
        4 -1    0    0  502    0 +0.00000000000e+00 +0.00000000000e+00 +6.33873759990e+02  6.33873759990e+02  0.00000000000e+00 0.0000e+00 -1.0000e+00
       -3 -1    0    0    0  501 +0.00000000000e+00 +0.00000000000e+00 -8.31397403860e+02  8.31397403860e+02  0.00000000000e+00 0.0000e+00 1.0000e+00
       24  2    1    2    0    0 -1.97340494516e+02 +4.27443951055e+01 -3.73404858182e+02  4.31845218457e+02  7.93016424884e+01 0.0000e+00 0.0000e+00
        2  1    3    3  504    0 -7.57924198441e+00 +1.67122987768e+01 -7.53470654729e+01  7.75495075087e+01  0.00000000000e+00 0.0000e+00 -1.0000e+00
       -1  1    3    3    0  504 -1.89761252532e+02 +2.60320963287e+01 -2.98057792709e+02  3.54295710948e+02  0.00000000000e+00 0.0000e+00 1.0000e+00
       24  2    1    2    0    0 +6.38123125522e+01 +8.94409901493e+00 +1.29631640627e+02  1.71429264183e+02  9.18238652322e+01 0.0000e+00 0.0000e+00
       12  1    6    6    0    0 +6.55823236826e+01 -7.58134684921e+00 +1.37883326620e+02  1.52873574432e+02  0.00000000000e+00 0.0000e+00 -1.0000e+00
      -11  1    6    6    0    0 -1.77001113038e+00 +1.65254458641e+01 -8.25168599327e+00  1.85556897512e+01  0.00000000000e+00 0.0000e+00 1.0000e+00
       21  1    1    2  503  501 -1.52605427125e+02 +7.22916073981e+01 -6.57864463300e+01  1.81224582794e+02  0.00000000000e+00 0.0000e+00 1.0000e+00
        3  1    1    2  502    0 +3.69778877508e+02 -2.50094208685e+02 +2.17240558348e+02  4.96464491842e+02  0.00000000000e+00 0.0000e+00 -1.0000e+00
       -4  1    1    2    0  503 -8.36452684191e+01 +1.26114107166e+02 -1.05204538333e+02  1.84307606574e+02  0.00000000000e+00 0.0000e+00 1.0000e+00
#  0.1300000e+05  0.1300000e+05  0.9054700e+02  0.1300000e+05  0.3528233e+03
<mgrwt>
<rscale>  1 0.69148130e+03</rscale>
<asrwt>  2 0.90547000e+02 0.35282326e+03</asrwt>
<pdfrwt beam="1">  1        4 0.97519040e-01 0.21746772e+03</pdfrwt>
<pdfrwt beam="2">  1       -3 0.12790729e+00 0.10168159e+04</pdfrwt>
<totfact> 0.11843343e-03</totfact>
</mgrwt>
<clustering>
<clus scale="   90.547">  5  7 -1 -1</clus>
<clus scale="  217.468">  1  3  2 -1</clus>
<clus scale="  333.643">  4  6 -1 -1</clus>
<clus scale="  352.823">  4  5 -1 -1</clus>
<clus scale=" 1016.816">  1  3  2 -1</clus>
</clustering>
<rwgt>
  <wgt id="1">3.46892e-06</wgt>
  <wgt id="2">2.90878e-06</wgt>
  <wgt id="3">2.50642e-06</wgt>
  <wgt id="4">3.36913e-06</wgt>
  <wgt id="5">2.8251e-06</wgt>
  <wgt id="6">2.43431e-06</wgt>
  <wgt id="7">3.17611e-06</wgt>
  <wgt id="8">2.66325e-06</wgt>
  <wgt id="9">2.29485e-06</wgt>
  <wgt id="10">4.36415e-06</wgt>
  <wgt id="11">2.8251e-06</wgt>
  <wgt id="12">1.98373e-06</wgt>
  <wgt id="13">2.8251e-06</wgt>
  <wgt id="14">2.84038e-06</wgt>
  <wgt id="15">2.81254e-06</wgt>
  <wgt id="16">2.78693e-06</wgt>
  <wgt id="17">2.86798e-06</wgt>
  <wgt id="18">2.87038e-06</wgt>
  <wgt id="19">2.75803e-06</wgt>
  <wgt id="20">2.79207e-06</wgt>
  <wgt id="21">2.84729e-06</wgt>
  <wgt id="22">2.88038e-06</wgt>
  <wgt id="23">2.74633e-06</wgt>
  <wgt id="24">2.72728e-06</wgt>
  <wgt id="25">2.88614e-06</wgt>
  <wgt id="26">2.82308e-06</wgt>
  <wgt id="27">2.82797e-06</wgt>
  <wgt id="28">2.82119e-06</wgt>
  <wgt id="29">2.82657e-06</wgt>
  <wgt id="30">2.76428e-06</wgt>
  <wgt id="31">2.90237e-06</wgt>
  <wgt id="32">2.82452e-06</wgt>
  <wgt id="33">2.82587e-06</wgt>
  <wgt id="34">2.89612e-06</wgt>
  <wgt id="35">2.71126e-06</wgt>
  <wgt id="36">2.75903e-06</wgt>
  <wgt id="37">2.86788e-06</wgt>
  <wgt id="38">2.74644e-06</wgt>
  <wgt id="39">2.86296e-06</wgt>
  <wgt id="40">2.81622e-06</wgt>
  <wgt id="41">2.83954e-06</wgt>
  <wgt id="42">2.78529e-06</wgt>
  <wgt id="43">2.88829e-06</wgt>
  <wgt id="44">2.83476e-06</wgt>
  <wgt id="45">2.8211e-06</wgt>
  <wgt id="46">2.77329e-06</wgt>
  <wgt id="47">2.85403e-06</wgt>
  <wgt id="48">2.82448e-06</wgt>
  <wgt id="49">2.82658e-06</wgt>
  <wgt id="50">2.84558e-06</wgt>
  <wgt id="51">2.84352e-06</wgt>
  <wgt id="52">2.91921e-06</wgt>
  <wgt id="53">2.83728e-06</wgt>
</rwgt>
</event>
<event>
 11      0 +2.8251000e-06 1.89877100e+02 7.54677100e-03 1.10837700e-01
       -1 -1    0    0    0  501 +0.00000000000e+00 +0.00000000000e+00 +1.76615557540e+02  1.76615557540e+02  0.00000000000e+00 0.0000e+00 1.0000e+00
        2 -1    0    0  503    0 +0.00000000000e+00 +0.00000000000e+00 -1.14576005470e+03  1.14576005470e+03  0.00000000000e+00 0.0000e+00 -1.0000e+00
       24  2    1    2    0    0 -2.63759748687e+01 -3.18464347046e+01 -3.82607949396e+02  3.93560223283e+02  8.24070321967e+01 0.0000e+00 0.0000e+00
        2  1    3    3  504    0 -1.63941219260e+01 -2.24719392984e+01 -3.78131689200e+02  3.79153438158e+02  0.00000000000e+00 0.0000e+00 -1.0000e+00
       -1  1    3    3    0  504 -9.98185294272e+00 -9.37449540618e+00 -4.47626019610e+00  1.44067851249e+01  0.00000000000e+00 0.0000e+00 1.0000e+00
       24  2    1    2    0    0 -1.82878328593e+01 +2.08445242434e+02 -3.80849945328e+02  4.41968660497e+02  8.06582424856e+01 0.0000e+00 0.0000e+00
        2  1    6    6  505    0 -4.39022094209e+01 +1.81541407441e+02 -3.08341487425e+02  3.60498487480e+02  0.00000000000e+00 0.0000e+00 -1.0000e+00
       -1  1    6    6    0  505 +2.56143765616e+01 +2.69038349937e+01 -7.25084579028e+01  8.14701730172e+01  0.00000000000e+00 0.0000e+00 1.0000e+00
       21  1    1    2  503  501 +9.12364401614e+00 -6.39168951146e+01 +3.12287582238e+01  7.17206086242e+01  0.00000000000e+00 0.0000e+00 1.0000e+00
        1  1    1    2  502    0 -1.42543061315e+02 -5.87761982744e+01 -1.19997102554e+02  1.95377763407e+02  0.00000000000e+00 0.0000e+00 -1.0000e+00
       -2  1    1    2    0  502 +1.78083225027e+02 -5.39057143408e+01 -1.16918258106e+02  2.19748356429e+02  0.00000000000e+00 0.0000e+00 1.0000e+00
#  0.1300000e+05  0.1300000e+05  0.6457362e+02  0.1300000e+05  0.1300000e+05
<mgrwt>
<rscale>  2 0.15794002e+03</rscale>
<asrwt>  1 0.64573622e+02</asrwt>
<pdfrwt beam="1">  1        2 0.17627078e+00 0.90897309e+02</pdfrwt>
<pdfrwt beam="2">  2       -1       -1 0.27171624e-01 0.18772842e-01 0.64573622e+02 0.18987710e+03</pdfrwt>
<totfact> 0.56763766e-01</totfact>
</mgrwt>
<clustering>
<clus scale="   64.574">  1  5  2 -1</clus>
<clus scale="   90.897">  2  3  1 -1</clus>
<clus scale="  170.459">  2  6  1 -1</clus>
<clus scale="  172.006">  2  7  1 -1</clus>
<clus scale="  189.877">  2  3  1 -1</clus>
</clustering>
<rwgt>
  <wgt id="1">4.53809e-06</wgt>
  <wgt id="2">2.92767e-06</wgt>
  <wgt id="3">2.04977e-06</wgt>
  <wgt id="4">4.3791e-06</wgt>
  <wgt id="5">2.8251e-06</wgt>
  <wgt id="6">1.97795e-06</wgt>
  <wgt id="7">4.19503e-06</wgt>
  <wgt id="8">2.70635e-06</wgt>
  <wgt id="9">1.89481e-06</wgt>
  <wgt id="10">3.65517e-06</wgt>
  <wgt id="11">2.8251e-06</wgt>
  <wgt id="12">2.30698e-06</wgt>
  <wgt id="13">2.8251e-06</wgt>
  <wgt id="14">2.83031e-06</wgt>
  <wgt id="15">2.82065e-06</wgt>
  <wgt id="16">2.83261e-06</wgt>
  <wgt id="17">2.8165e-06</wgt>
  <wgt id="18">2.81176e-06</wgt>
  <wgt id="19">2.8446e-06</wgt>
  <wgt id="20">2.83199e-06</wgt>
  <wgt id="21">2.82034e-06</wgt>
  <wgt id="22">2.83325e-06</wgt>
  <wgt id="23">2.81349e-06</wgt>
  <wgt id="24">2.86849e-06</wgt>
  <wgt id="25">2.79833e-06</wgt>
  <wgt id="26">2.82618e-06</wgt>
  <wgt id="27">2.82355e-06</wgt>
  <wgt id="28">2.85169e-06</wgt>
  <wgt id="29">2.81544e-06</wgt>
  <wgt id="30">2.8339e-06</wgt>
  <wgt id="31">2.81284e-06</wgt>
  <wgt id="32">2.83487e-06</wgt>
  <wgt id="33">2.81576e-06</wgt>
  <wgt id="34">2.79949e-06</wgt>
  <wgt id="35">2.87165e-06</wgt>
  <wgt id="36">2.85582e-06</wgt>
  <wgt id="37">2.80661e-06</wgt>
  <wgt id="38">2.82285e-06</wgt>
  <wgt id="39">2.82623e-06</wgt>
  <wgt id="40">2.82145e-06</wgt>
  <wgt id="41">2.82966e-06</wgt>
  <wgt id="42">2.84615e-06</wgt>
  <wgt id="43">2.78107e-06</wgt>
  <wgt id="44">2.83028e-06</wgt>
  <wgt id="45">2.8233e-06</wgt>
  <wgt id="46">2.81528e-06</wgt>
  <wgt id="47">2.83201e-06</wgt>
  <wgt id="48">2.82812e-06</wgt>
  <wgt id="49">2.8248e-06</wgt>
  <wgt id="50">2.82823e-06</wgt>
  <wgt id="51">2.81489e-06</wgt>
  <wgt id="52">2.83976e-06</wgt>
  <wgt id="53">2.82103e-06</wgt>
</rwgt>
</event>
<event>
 11      0 +2.8251000e-06 2.71036700e+02 7.54677100e-03 1.04443600e-01
        2 -1    0    0  503    0 +0.00000000000e+00 +0.00000000000e+00 +1.10342046350e+02  1.10342046350e+02  0.00000000000e+00 0.0000e+00 -1.0000e+00
        4 -1    0    0  501    0 +0.00000000000e+00 +0.00000000000e+00 -2.92753924080e+03  2.92753924080e+03  0.00000000000e+00 0.0000e+00 -1.0000e+00
       24  2    1    2    0    0 -1.00626317459e+02 -5.91437249742e+01 -5.14696784217e+02  5.33809146771e+02  8.00986237351e+01 0.0000e+00 0.0000e+00
        2  1    3    3  504    0 -6.35716230142e+01 +8.57014974608e+00 -2.18713875709e+02  2.27926650804e+02  0.00000000000e+00 0.0000e+00 -1.0000e+00
       -1  1    3    3    0  504 -3.70546944449e+01 -6.77138747203e+01 -2.95982908508e+02  3.05882495967e+02  0.00000000000e+00 0.0000e+00 1.0000e+00
       24  2    1    2    0    0 -1.41651892124e+02 +1.33173244911e+02 -3.83517109442e+02  4.37530440903e+02  8.09144102070e+01 0.0000e+00 0.0000e+00
        2  1    6    6  505    0 -1.46152731509e+02 +1.39735067965e+02 -3.62898180304e+02  4.15429415683e+02  0.00000000000e+00 0.0000e+00 -1.0000e+00
       -1  1    6    6    0  505 +4.50083938551e+00 -6.56182305336e+00 -2.06189291384e+01  2.21010252199e+01  0.00000000000e+00 0.0000e+00 1.0000e+00
       21  1    1    2  503  502 +7.36690076409e+01 -5.95844508497e+01 -1.24869483410e+02  1.56747623130e+02  0.00000000000e+00 0.0000e+00 1.0000e+00
        1  1    1    2  501    0 -2.21798175683e+02 +2.83793086533e+01 -9.89388339067e+02  1.01434170839e+03  0.00000000000e+00 0.0000e+00 -1.0000e+00
        3  1    1    2  502    0 +3.90407377624e+02 -4.28243777405e+01 -8.04725478315e+02  8.95452367958e+02  0.00000000000e+00 0.0000e+00 -1.0000e+00
#  0.1300000e+05  0.1300000e+05  0.6427285e+02  0.1300000e+05  0.1300000e+05
<mgrwt>
<rscale>  2 0.24374633e+03</rscale>
<asrwt>  1 0.64272849e+02</asrwt>
<pdfrwt beam="1">  1        2 0.16975699e-01 0.21659867e+03</pdfrwt>
<pdfrwt beam="2">  1        4 0.45039065e+00 0.14167593e+03</pdfrwt>
<totfact> 0.51505964e-04</totfact>
</mgrwt>
<clustering>
<clus scale="   64.273">  5  7 -1 -1</clus>
<clus scale="  141.676">  2  3  1 -1</clus>
<clus scale="  216.599">  1  4  2 -1</clus>
<clus scale="  312.903">  1  6  2 -1</clus>
<clus scale="  339.157">  1  3  2 -1</clus>
</clustering>
<rwgt>
  <wgt id="1">4.73902e-06</wgt>
  <wgt id="2">3.14887e-06</wgt>
  <wgt id="3">2.24825e-06</wgt>
  <wgt id="4">4.25175e-06</wgt>
  <wgt id="5">2.8251e-06</wgt>
  <wgt id="6">2.01708e-06</wgt>
  <wgt id="7">3.74824e-06</wgt>
  <wgt id="8">2.49054e-06</wgt>
  <wgt id="9">1.77821e-06</wgt>
  <wgt id="10">3.65603e-06</wgt>
  <wgt id="11">2.8251e-06</wgt>
  <wgt id="12">2.30665e-06</wgt>
  <wgt id="13">2.8251e-06</wgt>
  <wgt id="14">2.83908e-06</wgt>
  <wgt id="15">2.81362e-06</wgt>
  <wgt id="16">2.83496e-06</wgt>
  <wgt id="17">2.81418e-06</wgt>
  <wgt id="18">2.82434e-06</wgt>
  <wgt id="19">2.82625e-06</wgt>
  <wgt id="20">2.82757e-06</wgt>
  <wgt id="21">2.82345e-06</wgt>
  <wgt id="22">2.81971e-06</wgt>
  <wgt id="23">2.83279e-06</wgt>
  <wgt id="24">2.7933e-06</wgt>
  <wgt id="25">2.84478e-06</wgt>
  <wgt id="26">2.83382e-06</wgt>
  <wgt id="27">2.81327e-06</wgt>
  <wgt id="28">2.81748e-06</wgt>
  <wgt id="29">2.82783e-06</wgt>
  <wgt id="30">2.69081e-06</wgt>
  <wgt id="31">3.00096e-06</wgt>
  <wgt id="32">2.83224e-06</wgt>
  <wgt id="33">2.81879e-06</wgt>
  <wgt id="34">3.17361e-06</wgt>
  <wgt id="35">2.30384e-06</wgt>
  <wgt id="36">2.60074e-06</wgt>
  <wgt id="37">2.97609e-06</wgt>
  <wgt id="38">2.69262e-06</wgt>
  <wgt id="39">2.89056e-06</wgt>
  <wgt id="40">2.76547e-06</wgt>
  <wgt id="41">2.89609e-06</wgt>
  <wgt id="42">2.73902e-06</wgt>
  <wgt id="43">2.96343e-06</wgt>
  <wgt id="44">2.77561e-06</wgt>
  <wgt id="45">2.84515e-06</wgt>
  <wgt id="46">2.85276e-06</wgt>
  <wgt id="47">2.80862e-06</wgt>
  <wgt id="48">2.91601e-06</wgt>
  <wgt id="49">2.76997e-06</wgt>
  <wgt id="50">2.4569e-06</wgt>
  <wgt id="51">3.35705e-06</wgt>
  <wgt id="52">2.84351e-06</wgt>
  <wgt id="53">2.82007e-06</wgt>
</rwgt>
</event>
<event>
 10      0 +2.8251000e-06 3.04731000e+02 7.54677100e-03 1.04578200e-01
        2 -1    0    0  501    0 +0.00000000000e+00 +0.00000000000e+00 +1.70431781390e+02  1.70431781390e+02  0.00000000000e+00 0.0000e+00 -1.0000e+00
        2 -1    0    0  502    0 +0.00000000000e+00 +0.00000000000e+00 -2.32719552270e+03  2.32719552270e+03  0.00000000000e+00 0.0000e+00 -1.0000e+00
       24  2    1    2    0    0 +1.05472912236e+02 -1.28238695778e+02 -2.00247317739e+01  1.85338888757e+02  7.98737472070e+01 0.0000e+00 0.0000e+00
        4  1    3    3  503    0 +1.13248902023e+02 -1.17505070695e+02 -3.33235733745e+01  1.66562949034e+02  0.00000000000e+00 0.0000e+00 -1.0000e+00
       -3  1    3    3    0  503 -7.77598978679e+00 -1.07336250823e+01 +1.32988416006e+01  1.87759397232e+01  0.00000000000e+00 0.0000e+00 1.0000e+00
       24  2    1    2    0    0 +8.67711705326e+01 +1.98595701778e+01 -5.13937332406e+02  5.27791735208e+02  8.06777264803e+01 0.0000e+00 0.0000e+00
        2  1    6    6  504    0 +9.38568638336e+01 +6.35123856381e+00 -4.92954914813e+02  5.01850572539e+02  0.00000000000e+00 0.0000e+00 -1.0000e+00
       -1  1    6    6    0  504 -7.08569330100e+00 +1.35083316140e+01 -2.09824175937e+01  2.59411626691e+01  0.00000000000e+00 0.0000e+00 1.0000e+00
        1  1    1    2  501    0 -1.49885101923e+02 +2.17577809281e+02 -1.64431898388e+03  1.66541002988e+03  0.00000000000e+00 0.0000e+00 -1.0000e+00
        1  1    1    2  502    0 -4.23589808454e+01 -1.09198683682e+02 +2.15173067539e+01  1.19086650243e+02  0.00000000000e+00 0.0000e+00 -1.0000e+00
#  0.1300000e+05  0.1300000e+05  0.1300000e+05  0.1300000e+05
<mgrwt>
<rscale>  2 0.24139620e+03</rscale>
<asrwt>0</asrwt>
<pdfrwt beam="1">  1        2 0.26220274e-01 0.30473102e+03</pdfrwt>
<pdfrwt beam="2">  1        2 0.35803008e+00 0.11999737e+03</pdfrwt>
<totfact> 0.19129822e+00</totfact>
</mgrwt>
<clustering>
<clus scale="  116.786">  3  6 -1 -1</clus>
<clus scale="  119.997">  2  4  1 -1</clus>
<clus scale="  246.065">  2  5  1 -1</clus>
<clus scale="  304.731">  1  3  2 -1</clus>
</clustering>
<rwgt>
  <wgt id="1">4.96594e-06</wgt>
  <wgt id="2">3.29765e-06</wgt>
  <wgt id="3">2.3535e-06</wgt>
  <wgt id="4">4.25433e-06</wgt>
  <wgt id="5">2.8251e-06</wgt>
  <wgt id="6">2.01625e-06</wgt>
  <wgt id="7">3.71071e-06</wgt>
  <wgt id="8">2.46411e-06</wgt>
  <wgt id="9">1.75861e-06</wgt>
  <wgt id="10">2.8251e-06</wgt>
  <wgt id="11">2.8251e-06</wgt>
  <wgt id="12">2.8251e-06</wgt>
  <wgt id="13">2.8251e-06</wgt>
  <wgt id="14">2.82893e-06</wgt>
  <wgt id="15">2.8219e-06</wgt>
  <wgt id="16">2.81779e-06</wgt>
  <wgt id="17">2.83303e-06</wgt>
  <wgt id="18">2.81244e-06</wgt>
  <wgt id="19">2.84384e-06</wgt>
  <wgt id="20">2.82057e-06</wgt>
  <wgt id="21">2.82799e-06</wgt>
  <wgt id="22">2.83216e-06</wgt>
  <wgt id="23">2.81497e-06</wgt>
  <wgt id="24">2.86355e-06</wgt>
  <wgt id="25">2.80137e-06</wgt>
  <wgt id="26">2.82542e-06</wgt>
  <wgt id="27">2.82458e-06</wgt>
  <wgt id="28">2.84837e-06</wgt>
  <wgt id="29">2.81639e-06</wgt>
  <wgt id="30">2.83201e-06</wgt>
  <wgt id="31">2.81576e-06</wgt>
  <wgt id="32">2.82374e-06</wgt>
  <wgt id="33">2.82623e-06</wgt>
  <wgt id="34">2.78931e-06</wgt>
  <wgt id="35">2.89031e-06</wgt>
  <wgt id="36">2.82781e-06</wgt>
  <wgt id="37">2.82479e-06</wgt>
  <wgt id="38">2.82009e-06</wgt>
  <wgt id="39">2.82808e-06</wgt>
  <wgt id="40">2.83416e-06</wgt>
  <wgt id="41">2.81615e-06</wgt>
  <wgt id="42">2.84244e-06</wgt>
  <wgt id="43">2.79301e-06</wgt>
  <wgt id="44">2.83314e-06</wgt>
  <wgt id="45">2.82193e-06</wgt>
  <wgt id="46">2.8214e-06</wgt>
  <wgt id="47">2.82756e-06</wgt>
  <wgt id="48">2.81447e-06</wgt>
  <wgt id="49">2.83387e-06</wgt>
  <wgt id="50">2.81674e-06</wgt>
  <wgt id="51">2.8315e-06</wgt>
  <wgt id="52">2.83195e-06</wgt>
  <wgt id="53">2.82344e-06</wgt>
</rwgt>
</event>
<event>
 11      0 +2.8251000e-06 3.43446400e+02 7.54677100e-03 1.02071400e-01
        2 -1    0    0  503    0 +0.00000000000e+00 +0.00000000000e+00 +1.07967807100e+03  1.07967807100e+03  0.00000000000e+00 0.0000e+00 -1.0000e+00
        2 -1    0    0  502    0 +0.00000000000e+00 +0.00000000000e+00 -8.83806933850e+02  8.83806933850e+02  0.00000000000e+00 0.0000e+00 -1.0000e+00
       24  2    1    2    0    0 -1.61622999332e+02 -2.43799043789e+01 +4.56155671296e+02  4.90948348001e+02  7.89677801315e+01 0.0000e+00 0.0000e+00
        4  1    3    3  504    0 -1.36864916145e+02 -5.00806166975e+01 +3.72816224101e+02  4.00289907934e+02  0.00000000000e+00 0.0000e+00 -1.0000e+00
       -3  1    3    3    0  504 -2.47580831867e+01 +2.57007123187e+01 +8.33394471943e+01  9.06584400672e+01  0.00000000000e+00 0.0000e+00 1.0000e+00
       24  2    1    2    0    0 -1.50551122197e+02 +4.20221112295e+01 -4.37119531760e+02  4.70942146813e+02  7.92560557419e+01 0.0000e+00 0.0000e+00
        4  1    6    6  505    0 -1.43530037949e+02 +3.28861465703e+01 -4.34973970082e+02  4.59221869121e+02  0.00000000000e+00 0.0000e+00 -1.0000e+00
       -3  1    6    6    0  505 -7.02108424767e+00 +9.13596465918e+00 -2.14556167808e+00  1.17202776922e+01  0.00000000000e+00 0.0000e+00 1.0000e+00
       21  1    1    2  503  501 +2.73181290530e+02 +9.22801593946e+00 -1.14928372167e+02  2.96515943083e+02  0.00000000000e+00 0.0000e+00 1.0000e+00
        1  1    1    2  501    0 +1.89170728105e+02 -4.59058415740e+01 -1.45061773333e+02  2.42767025654e+02  0.00000000000e+00 0.0000e+00 -1.0000e+00
        1  1    1    2  502    0 -1.50177897106e+02 +1.90356187840e+01 +4.36825143114e+02  4.62311541299e+02  0.00000000000e+00 0.0000e+00 -1.0000e+00
#  0.1300000e+05  0.1300000e+05  0.7602055e+02  0.1300000e+05  0.1300000e+05
<mgrwt>
<rscale>  2 0.29040713e+03</rscale>
<asrwt>  1 0.76020552e+02</asrwt>
<pdfrwt beam="1">  1        2 0.16610432e+00 0.34344643e+03</pdfrwt>
<pdfrwt beam="2">  1        2 0.13597030e+00 0.17557072e+03</pdfrwt>
<totfact> 0.15224249e-01</totfact>
</mgrwt>
<clustering>
<clus scale="   76.021">  5  6 -1 -1</clus>
<clus scale="  146.894">  3  7 -1 -1</clus>
<clus scale="  175.571">  2  4  1 -1</clus>
<clus scale="  334.710">  2  5  1 -1</clus>
<clus scale="  343.446">  1  3  2 -1</clus>
</clustering>
<rwgt>
  <wgt id="1">4.81401e-06</wgt>
  <wgt id="2">3.23317e-06</wgt>
  <wgt id="3">2.3253e-06</wgt>
  <wgt id="4">4.20642e-06</wgt>
  <wgt id="5">2.8251e-06</wgt>
  <wgt id="6">2.03182e-06</wgt>
  <wgt id="7">3.72594e-06</wgt>
  <wgt id="8">2.5024e-06</wgt>
  <wgt id="9">1.79973e-06</wgt>
  <wgt id="10">3.62613e-06</wgt>
  <wgt id="11">2.8251e-06</wgt>
  <wgt id="12">2.31851e-06</wgt>
  <wgt id="13">2.8251e-06</wgt>
  <wgt id="14">2.82794e-06</wgt>
  <wgt id="15">2.82276e-06</wgt>
  <wgt id="16">2.81288e-06</wgt>
  <wgt id="17">2.83872e-06</wgt>
  <wgt id="18">2.81156e-06</wgt>
  <wgt id="19">2.84517e-06</wgt>
  <wgt id="20">2.81346e-06</wgt>
  <wgt id="21">2.83294e-06</wgt>
  <wgt id="22">2.83267e-06</wgt>
  <wgt id="23">2.81438e-06</wgt>
  <wgt id="24">2.86699e-06</wgt>
  <wgt id="25">2.79926e-06</wgt>
  <wgt id="26">2.82475e-06</wgt>
  <wgt id="27">2.8257e-06</wgt>
  <wgt id="28">2.87807e-06</wgt>
  <wgt id="29">2.80599e-06</wgt>
  <wgt id="30">2.831e-06</wgt>
  <wgt id="31">2.81773e-06</wgt>
  <wgt id="32">2.8285e-06</wgt>
  <wgt id="33">2.82188e-06</wgt>
  <wgt id="34">2.78645e-06</wgt>
  <wgt id="35">2.89668e-06</wgt>
  <wgt id="36">2.85367e-06</wgt>
  <wgt id="37">2.80883e-06</wgt>
  <wgt id="38">2.81152e-06</wgt>
  <wgt id="39">2.83186e-06</wgt>
  <wgt id="40">2.82598e-06</wgt>
  <wgt id="41">2.82464e-06</wgt>
  <wgt id="42">2.84988e-06</wgt>
  <wgt id="43">2.78467e-06</wgt>
  <wgt id="44">2.83304e-06</wgt>
  <wgt id="45">2.82218e-06</wgt>
  <wgt id="46">2.82461e-06</wgt>
  <wgt id="47">2.82561e-06</wgt>
  <wgt id="48">2.81684e-06</wgt>
  <wgt id="49">2.8323e-06</wgt>
  <wgt id="50">2.8154e-06</wgt>
  <wgt id="51">2.83889e-06</wgt>
  <wgt id="52">2.83891e-06</wgt>
  <wgt id="53">2.82149e-06</wgt>
</rwgt>
</event>
<event>
 11      0 +2.8251000e-06 5.12155900e+02 7.54677100e-03 9.76721500e-02
        2 -1    0    0  501    0 +0.00000000000e+00 +0.00000000000e+00 +2.23497062620e+03  2.23497062620e+03  0.00000000000e+00 0.0000e+00 -1.0000e+00
       -1 -1    0    0    0  501 +0.00000000000e+00 +0.00000000000e+00 -9.39570351500e+02  9.39570351500e+02  0.00000000000e+00 0.0000e+00 1.0000e+00
       24  2    1    2    0    0 -4.18587446118e+02 -1.97777909098e+02 -6.84062901446e+02  8.29880786724e+02  8.01780248177e+01 0.0000e+00 0.0000e+00
       12  1    3    3    0    0 -8.39589241274e+01 -5.69415549793e+01 -1.01909159277e+02  1.43794709112e+02  0.00000000000e+00 0.0000e+00 -1.0000e+00
      -11  1    3    3    0    0 -3.34628521990e+02 -1.40836354118e+02 -5.82153742169e+02  6.86086077611e+02  0.00000000000e+00 0.0000e+00 1.0000e+00
       24  2    1    2    0    0 +1.96784667460e+02 +1.20735735000e+01 +1.18956962946e+03  1.20840822134e+03  7.94011936348e+01 0.0000e+00 0.0000e+00
        2  1    6    6  504    0 +1.64134501723e+02 +3.73392890161e+01 +1.02556583043e+03  1.03928803981e+03  0.00000000000e+00 0.0000e+00 -1.0000e+00
       -1  1    6    6    0  504 +3.26501657369e+01 -2.52657155161e+01 +1.64003799032e+02  1.69120181528e+02  0.00000000000e+00 0.0000e+00 1.0000e+00
       21  1    1    2  503  502 +2.17879785447e+02 +1.14164223492e+02 +7.19622238517e+02  7.60500648915e+02  0.00000000000e+00 0.0000e+00 -1.0000e+00
        1  1    1    2  502    0 +4.95662128134e+01 +6.90931108044e+01 +2.11157378174e+02  2.27635906155e+02  0.00000000000e+00 0.0000e+00 -1.0000e+00
       -2  1    1    2    0  503 -4.56432196026e+01 +2.44700130095e+00 -1.40886070003e+02  1.48115414566e+02  0.00000000000e+00 0.0000e+00 1.0000e+00
#  0.1300000e+05  0.1300000e+05  0.4137133e+02  0.1300000e+05  0.1300000e+05
<mgrwt>
<rscale>  2 0.41116685e+03</rscale>
<asrwt>  1 0.41371330e+02</asrwt>
<pdfrwt beam="1">  1        2 0.34384163e+00 0.21274819e+03</pdfrwt>
<pdfrwt beam="2">  1       -1 0.14454928e+00 0.51215588e+03</pdfrwt>
<totfact> 0.43417185e-03</totfact>
</mgrwt>
<clustering>
<clus scale="   41.371">  5  6 -1 -1</clus>
<clus scale="   45.583">  3  7 -1 -1</clus>
<clus scale="  212.748">  1  4  2 -1</clus>
<clus scale="  494.959">  1  5  2 -1</clus>
<clus scale="  512.156">  1  3  2 -1</clus>
</clustering>
<rwgt>
  <wgt id="1">5.45967e-06</wgt>
  <wgt id="2">3.7398e-06</wgt>
  <wgt id="3">2.7264e-06</wgt>
  <wgt id="4">4.12431e-06</wgt>
  <wgt id="5">2.8251e-06</wgt>
  <wgt id="6">2.05956e-06</wgt>
  <wgt id="7">3.24159e-06</wgt>
  <wgt id="8">2.22044e-06</wgt>
  <wgt id="9">1.61876e-06</wgt>
  <wgt id="10">3.74718e-06</wgt>
  <wgt id="11">2.8251e-06</wgt>
  <wgt id="12">2.27302e-06</wgt>
  <wgt id="13">2.8251e-06</wgt>
  <wgt id="14">2.83e-06</wgt>
  <wgt id="15">2.82122e-06</wgt>
  <wgt id="16">2.82998e-06</wgt>
  <wgt id="17">2.8196e-06</wgt>
  <wgt id="18">2.80802e-06</wgt>
  <wgt id="19">2.85118e-06</wgt>
  <wgt id="20">2.85596e-06</wgt>
  <wgt id="21">2.80446e-06</wgt>
  <wgt id="22">2.84032e-06</wgt>
  <wgt id="23">2.80397e-06</wgt>
  <wgt id="24">2.9045e-06</wgt>
  <wgt id="25">2.77686e-06</wgt>
  <wgt id="26">2.82635e-06</wgt>
  <wgt id="27">2.82328e-06</wgt>
  <wgt id="28">2.8561e-06</wgt>
  <wgt id="29">2.81414e-06</wgt>
  <wgt id="30">2.80866e-06</wgt>
  <wgt id="31">2.84598e-06</wgt>
  <wgt id="32">2.83576e-06</wgt>
  <wgt id="33">2.81512e-06</wgt>
  <wgt id="34">2.81752e-06</wgt>
  <wgt id="35">2.83992e-06</wgt>
  <wgt id="36">2.78673e-06</wgt>
  <wgt id="37">2.84648e-06</wgt>
  <wgt id="38">2.93209e-06</wgt>
  <wgt id="39">2.77709e-06</wgt>
  <wgt id="40">2.82462e-06</wgt>
  <wgt id="41">2.8261e-06</wgt>
  <wgt id="42">2.82615e-06</wgt>
  <wgt id="43">2.81024e-06</wgt>
  <wgt id="44">2.87414e-06</wgt>
  <wgt id="45">2.80523e-06</wgt>
  <wgt id="46">2.86371e-06</wgt>
  <wgt id="47">2.80049e-06</wgt>
  <wgt id="48">2.83964e-06</wgt>
  <wgt id="49">2.82067e-06</wgt>
  <wgt id="50">2.81566e-06</wgt>
  <wgt id="51">2.84782e-06</wgt>
  <wgt id="52">2.79557e-06</wgt>
  <wgt id="53">2.8342e-06</wgt>
</rwgt>
</event>
<event>
 12      0 +2.8251000e-06 1.90813800e+02 7.54677100e-03 1.08903600e-01
        2 -1    0    0  504    0 +0.00000000000e+00 +0.00000000000e+00 +7.43872960940e+02  7.43872960940e+02  0.00000000000e+00 0.0000e+00 -1.0000e+00
        2 -1    0    0  503    0 +0.00000000000e+00 +0.00000000000e+00 -1.57653610800e+03  1.57653610800e+03  0.00000000000e+00 0.0000e+00 -1.0000e+00
       24  2    1    2    0    0 -7.83258520528e+00 +1.28386158747e+02 +9.75541068251e+01  1.80486550399e+02  8.07108169182e+01 0.0000e+00 0.0000e+00
        2  1    3    3  505    0 +3.47865497636e+00 +8.70905294990e+01 +1.63420693632e+01  8.86787719803e+01  0.00000000000e+00 0.0000e+00 -1.0000e+00
       -1  1    3    3    0  505 -1.13112401816e+01 +4.12956292482e+01 +8.12120374619e+01  9.18077784186e+01  0.00000000000e+00 0.0000e+00 1.0000e+00
       24  2    1    2    0    0 +5.74173317668e+00 -4.29434887908e+01 -5.40681995889e+02  5.48235607122e+02  7.96752753871e+01 0.0000e+00 0.0000e+00
       12  1    6    6    0    0 +2.60157301235e+01 -2.66393063264e+01 -4.88603171659e+02  4.90019928381e+02  0.00000000000e+00 0.0000e+00 -1.0000e+00
      -11  1    6    6    0    0 -2.02739969469e+01 -1.63041824644e+01 -5.20788242304e+01  5.82156787408e+01  0.00000000000e+00 0.0000e+00 1.0000e+00
       21  1    1    2  503  501 -3.75360312227e+01 -7.01824214170e+01 -1.44378226585e+02  1.64862361465e+02  0.00000000000e+00 0.0000e+00 -1.0000e+00
       21  1    1    2  504  502 -2.75921595192e+01 -5.03434409251e+01 +1.91040131480e+01  6.05041538200e+01  0.00000000000e+00 0.0000e+00 -1.0000e+00
        1  1    1    2  501    0 +5.27438491437e+01 +1.97697125032e+02 +5.23371377843e+02  5.61946319513e+02  0.00000000000e+00 0.0000e+00 -1.0000e+00
        1  1    1    2  502    0 +1.44751936269e+01 -1.62613932647e+02 -7.87632422402e+02  8.04374076622e+02  0.00000000000e+00 0.0000e+00 -1.0000e+00
#  0.1300000e+05  0.1300000e+05  0.8043718e+02  0.5740897e+02  0.1300000e+05  0.1300000e+05
<mgrwt>
<rscale>  2 0.17910538e+03</rscale>
<asrwt>  2 0.57408965e+02 0.80437176e+02</asrwt>
<pdfrwt beam="1">  2        2        2 0.11444199e+00 0.10681565e+00 0.57408965e+02 0.19081381e+03</pdfrwt>
<pdfrwt beam="2">  2        2        2 0.24254402e+00 0.21438030e+00 0.80437176e+02 0.19081381e+03</pdfrwt>
<totfact> 0.16092289e-02</totfact>
</mgrwt>
<clustering>
<clus scale="   57.409">  1  6  2 -1</clus>
<clus scale="   80.437">  2  5  1 -1</clus>
<clus scale="  108.338">  2  4  1 -1</clus>
<clus scale="  139.567">  1  3  2 -1</clus>
<clus scale="  260.877">  2  8  1 -1</clus>
<clus scale="  260.877">  1  3  2 -1</clus>
</clustering>
<rwgt>
  <wgt id="1">5.05844e-06</wgt>
  <wgt id="2">3.29311e-06</wgt>
  <wgt id="3">2.31932e-06</wgt>
  <wgt id="4">4.33955e-06</wgt>
  <wgt id="5">2.8251e-06</wgt>
  <wgt id="6">1.9897e-06</wgt>
  <wgt id="7">3.80822e-06</wgt>
  <wgt id="8">2.4792e-06</wgt>
  <wgt id="9">1.74609e-06</wgt>
  <wgt id="10">4.70742e-06</wgt>
  <wgt id="11">2.8251e-06</wgt>
  <wgt id="12">1.88944e-06</wgt>
  <wgt id="13">2.8251e-06</wgt>
  <wgt id="14">2.82805e-06</wgt>
  <wgt id="15">2.82264e-06</wgt>
  <wgt id="16">2.81107e-06</wgt>
  <wgt id="17">2.84076e-06</wgt>
  <wgt id="18">2.81124e-06</wgt>
  <wgt id="19">2.84572e-06</wgt>
  <wgt id="20">2.81533e-06</wgt>
  <wgt id="21">2.83166e-06</wgt>
  <wgt id="22">2.83315e-06</wgt>
  <wgt id="23">2.81371e-06</wgt>
  <wgt id="24">2.86905e-06</wgt>
  <wgt id="25">2.79803e-06</wgt>
  <wgt id="26">2.82501e-06</wgt>
  <wgt id="27">2.82514e-06</wgt>
  <wgt id="28">2.87601e-06</wgt>
  <wgt id="29">2.80672e-06</wgt>
  <wgt id="30">2.83082e-06</wgt>
  <wgt id="31">2.81789e-06</wgt>
  <wgt id="32">2.82723e-06</wgt>
  <wgt id="33">2.82306e-06</wgt>
  <wgt id="34">2.78459e-06</wgt>
  <wgt id="35">2.90012e-06</wgt>
  <wgt id="36">2.8472e-06</wgt>
  <wgt id="37">2.8132e-06</wgt>
  <wgt id="38">2.81391e-06</wgt>
  <wgt id="39">2.83094e-06</wgt>
  <wgt id="40">2.82817e-06</wgt>
  <wgt id="41">2.82228e-06</wgt>
  <wgt id="42">2.84935e-06</wgt>
  <wgt id="43">2.78568e-06</wgt>
  <wgt id="44">2.83264e-06</wgt>
  <wgt id="45">2.82234e-06</wgt>
  <wgt id="46">2.82398e-06</wgt>
  <wgt id="47">2.82587e-06</wgt>
  <wgt id="48">2.81985e-06</wgt>
  <wgt id="49">2.83163e-06</wgt>
  <wgt id="50">2.81625e-06</wgt>
  <wgt id="51">2.83822e-06</wgt>
  <wgt id="52">2.83921e-06</wgt>
  <wgt id="53">2.82154e-06</wgt>
</rwgt>
</event>
<event>
 10      0 +2.8251000e-06 1.89853900e+02 7.54677100e-03 1.10161500e-01
       -3 -1    0    0    0  501 +0.00000000000e+00 +0.00000000000e+00 +2.48862297550e+02  2.48862297550e+02  0.00000000000e+00 0.0000e+00 1.0000e+00
        2 -1    0    0  501    0 +0.00000000000e+00 +0.00000000000e+00 -6.12430897970e+02  6.12430897970e+02  0.00000000000e+00 0.0000e+00 -1.0000e+00
       24  2    1    2    0    0 +1.14907322458e+02 +3.50496016724e+01 +4.58056626232e+00  1.44149067283e+02  7.95349274171e+01 0.0000e+00 0.0000e+00
       14  1    3    3    0    0 +5.73856246286e+01 +2.93754576659e+01 +4.04653081374e+01  7.61148381707e+01  0.00000000000e+00 0.0000e+00 -1.0000e+00
      -13  1    3    3    0    0 +5.75216978297e+01 +5.67414400642e+00 -3.58847418750e+01  6.80342291119e+01  0.00000000000e+00 0.0000e+00 1.0000e+00
       24  2    1    2    0    0 -8.55591923018e+00 -6.75701446059e+00 -5.21948610896e+01  9.99705785316e+01  8.45633020257e+01 0.0000e+00 0.0000e+00
        2  1    6    6  503    0 +1.34043577511e+01 -1.47364359774e+01 -6.85918920372e+01  7.14260947083e+01  0.00000000000e+00 0.0000e+00 -1.0000e+00
       -1  1    6    6    0  503 -2.19602769812e+01 +7.97942151681e+00 +1.63970309477e+01  2.85444838232e+01  0.00000000000e+00 0.0000e+00 1.0000e+00
        1  1    1    2  502    0 -1.26600283481e+02 -2.45109908671e+02 -2.85987535627e+02  3.97360503373e+02  0.00000000000e+00 0.0000e+00 -1.0000e+00
       -4  1    1    2    0  502 +2.02488802531e+01 +2.16817321459e+02 -2.99667699653e+01  2.19813046333e+02  0.00000000000e+00 0.0000e+00 1.0000e+00
#  0.1300000e+05  0.1300000e+05  0.1300000e+05  0.1300000e+05
<mgrwt>
<rscale>  2 0.16496187e+03</rscale>
<asrwt>0</asrwt>
<pdfrwt beam="1">  1        2 0.94220138e-01 0.81461408e+02</pdfrwt>
<pdfrwt beam="2">  1       -3 0.38286507e-01 0.14292086e+03</pdfrwt>
<totfact> 0.35102346e+00</totfact>
</mgrwt>
<clustering>
<clus scale="   81.461">  2  4  1 -1</clus>
<clus scale="  142.921">  1  3  2 -1</clus>
<clus scale="  252.199">  1  6  2 -1</clus>
<clus scale="  252.199">  2  3  1 -1</clus>
</clustering>
<rwgt>
  <wgt id="1">4.29114e-06</wgt>
  <wgt id="2">2.77721e-06</wgt>
  <wgt id="3">1.94843e-06</wgt>
  <wgt id="4">4.36513e-06</wgt>
  <wgt id="5">2.8251e-06</wgt>
  <wgt id="6">1.98203e-06</wgt>
  <wgt id="7">4.30891e-06</wgt>
  <wgt id="8">2.78872e-06</wgt>
  <wgt id="9">1.9565e-06</wgt>
  <wgt id="10">2.8251e-06</wgt>
  <wgt id="11">2.8251e-06</wgt>
  <wgt id="12">2.8251e-06</wgt>
  <wgt id="13">2.8251e-06</wgt>
  <wgt id="14">2.83297e-06</wgt>
  <wgt id="15">2.81872e-06</wgt>
  <wgt id="16">2.80113e-06</wgt>
  <wgt id="17">2.85194e-06</wgt>
  <wgt id="18">2.84693e-06</wgt>
  <wgt id="19">2.79239e-06</wgt>
  <wgt id="20">2.79734e-06</wgt>
  <wgt id="21">2.84375e-06</wgt>
  <wgt id="22">2.85075e-06</wgt>
  <wgt id="23">2.78874e-06</wgt>
  <wgt id="24">2.82812e-06</wgt>
  <wgt id="25">2.82323e-06</wgt>
  <wgt id="26">2.82386e-06</wgt>
  <wgt id="27">2.82673e-06</wgt>
  <wgt id="28">2.84345e-06</wgt>
  <wgt id="29">2.81846e-06</wgt>
  <wgt id="30">2.83619e-06</wgt>
  <wgt id="31">2.80984e-06</wgt>
  <wgt id="32">2.82168e-06</wgt>
  <wgt id="33">2.82829e-06</wgt>
  <wgt id="34">2.79628e-06</wgt>
  <wgt id="35">2.87896e-06</wgt>
  <wgt id="36">2.84013e-06</wgt>
  <wgt id="37">2.81721e-06</wgt>
  <wgt id="38">2.80718e-06</wgt>
  <wgt id="39">2.83351e-06</wgt>
  <wgt id="40">2.8296e-06</wgt>
  <wgt id="41">2.82224e-06</wgt>
  <wgt id="42">2.83614e-06</wgt>
  <wgt id="43">2.80284e-06</wgt>
  <wgt id="44">2.80856e-06</wgt>
  <wgt id="45">2.8313e-06</wgt>
  <wgt id="46">2.85617e-06</wgt>
  <wgt id="47">2.80177e-06</wgt>
  <wgt id="48">2.80371e-06</wgt>
  <wgt id="49">2.83645e-06</wgt>
  <wgt id="50">2.83186e-06</wgt>
  <wgt id="51">2.81302e-06</wgt>
  <wgt id="52">2.76285e-06</wgt>
  <wgt id="53">2.86256e-06</wgt>
</rwgt>
</event>
<event>
 10      0 +2.8251000e-06 3.03054900e+02 7.54677100e-03 1.05331800e-01
        2 -1    0    0  501    0 +0.00000000000e+00 +0.00000000000e+00 +2.08049052820e+03  2.08049052820e+03  0.00000000000e+00 0.0000e+00 -1.0000e+00
       -1 -1    0    0    0  501 +0.00000000000e+00 +0.00000000000e+00 -3.17785074000e+02  3.17785074000e+02  0.00000000000e+00 0.0000e+00 1.0000e+00
       24  2    1    2    0    0 +5.58869969868e+01 -1.65529200301e+01 +1.25520457658e+03  1.25894241022e+03  7.74603615053e+01 0.0000e+00 0.0000e+00
        4  1    3    3  503    0 -1.48129729165e+00 -3.49913641665e+01 +5.77885997105e+02  5.78946297559e+02  0.00000000000e+00 0.0000e+00 -1.0000e+00
       -3  1    3    3    0  503 +5.73682942784e+01 +1.84384441364e+01 +6.77318579472e+02  6.79996112664e+02  0.00000000000e+00 0.0000e+00 1.0000e+00
       24  2    1    2    0    0 +1.40162199831e+02 -1.52553255400e+01 -8.70468891747e+01  1.84501391922e+02  8.11506961612e+01 0.0000e+00 0.0000e+00
       16  1    6    6    0    0 +1.06273688231e+02 +2.51361076603e+01 -6.68397604930e+01  1.28037003641e+02  0.00000000000e+00 0.0000e+00 -1.0000e+00
      -15  1    6    6    0    0 +3.38885115999e+01 -4.03914332003e+01 -2.02071286817e+01  5.64643882814e+01  1.77700000000e+00 0.0000e+00 1.0000e+00
        1  1    1    2  502    0 -3.20715149626e+02 +7.75729372468e+01 +7.07391354019e+02  7.80562806912e+02  0.00000000000e+00 0.0000e+00 -1.0000e+00
       -2  1    1    2    0  502 +1.24665952808e+02 -4.57646916767e+01 -1.12843587222e+02  1.74268993143e+02  0.00000000000e+00 0.0000e+00 1.0000e+00
#  0.1300000e+05  0.1300000e+05  0.1300000e+05  0.1300000e+05
<mgrwt>
<rscale>  2 0.22875665e+03</rscale>
<asrwt>0</asrwt>
<pdfrwt beam="1">  1        2 0.32007547e+00 0.98385465e+02</pdfrwt>
<pdfrwt beam="2">  1       -1 0.48890011e-01 0.30305491e+03</pdfrwt>
<totfact> 0.49300039e-01</totfact>
</mgrwt>
<clustering>
<clus scale="   98.385">  1  3  2 -1</clus>
<clus scale="  136.917">  4  6 -1 -1</clus>
<clus scale="  277.380">  1  5  2 -1</clus>
<clus scale="  303.055">  1  3  2 -1</clus>
</clustering>
<rwgt>
  <wgt id="1">5.1454e-06</wgt>
  <wgt id="2">3.40511e-06</wgt>
  <wgt id="3">2.42457e-06</wgt>
  <wgt id="4">4.26896e-06</wgt>
  <wgt id="5">2.8251e-06</wgt>
  <wgt id="6">2.01158e-06</wgt>
  <wgt id="7">3.62364e-06</wgt>
  <wgt id="8">2.39805e-06</wgt>
  <wgt id="9">1.7075e-06</wgt>
  <wgt id="10">2.8251e-06</wgt>
  <wgt id="11">2.8251e-06</wgt>
  <wgt id="12">2.8251e-06</wgt>
  <wgt id="13">2.8251e-06</wgt>
  <wgt id="14">2.83023e-06</wgt>
  <wgt id="15">2.82087e-06</wgt>
  <wgt id="16">2.82856e-06</wgt>
  <wgt id="17">2.82088e-06</wgt>
  <wgt id="18">2.80939e-06</wgt>
  <wgt id="19">2.84859e-06</wgt>
  <wgt id="20">2.84364e-06</wgt>
  <wgt id="21">2.81251e-06</wgt>
  <wgt id="22">2.83682e-06</wgt>
  <wgt id="23">2.80851e-06</wgt>
  <wgt id="24">2.88633e-06</wgt>
  <wgt id="25">2.78763e-06</wgt>
  <wgt id="26">2.82648e-06</wgt>
  <wgt id="27">2.82311e-06</wgt>
  <wgt id="28">2.85132e-06</wgt>
  <wgt id="29">2.81549e-06</wgt>
  <wgt id="30">2.82434e-06</wgt>
  <wgt id="31">2.8253e-06</wgt>
  <wgt id="32">2.83551e-06</wgt>
  <wgt id="33">2.81496e-06</wgt>
  <wgt id="34">2.80214e-06</wgt>
  <wgt id="35">2.86693e-06</wgt>
  <wgt id="36">2.8392e-06</wgt>
  <wgt id="37">2.81533e-06</wgt>
  <wgt id="38">2.84239e-06</wgt>
  <wgt id="39">2.81774e-06</wgt>
  <wgt id="40">2.82351e-06</wgt>
  <wgt id="41">2.82718e-06</wgt>
  <wgt id="42">2.84516e-06</wgt>
  <wgt id="43">2.7817e-06</wgt>
  <wgt id="44">2.8326e-06</wgt>
  <wgt id="45">2.82238e-06</wgt>
  <wgt id="46">2.81936e-06</wgt>
  <wgt id="47">2.82973e-06</wgt>
  <wgt id="48">2.83526e-06</wgt>
  <wgt id="49">2.82411e-06</wgt>
  <wgt id="50">2.83275e-06</wgt>
  <wgt id="51">2.81986e-06</wgt>
  <wgt id="52">2.83533e-06</wgt>
  <wgt id="53">2.82263e-06</wgt>
</rwgt>
</event>
<event>
 11      0 +2.8251000e-06 1.86665200e+02 7.54677100e-03 1.10307800e-01
        2 -1    0    0  503    0 +0.00000000000e+00 +0.00000000000e+00 +2.36258819830e+02  2.36258819830e+02  0.00000000000e+00 0.0000e+00 -1.0000e+00
        2 -1    0    0  502    0 +0.00000000000e+00 +0.00000000000e+00 -2.37219052970e+03  2.37219052970e+03  0.00000000000e+00 0.0000e+00 -1.0000e+00
       24  2    1    2    0    0 -7.92477947078e+01 -3.34715727962e+01 +1.27685166481e+01  1.17863267353e+02  7.95497053558e+01 0.0000e+00 0.0000e+00
        2  1    3    3  504    0 -7.08186434460e+01 -4.33659433280e+01 +3.65751897388e+01  9.07393509162e+01  0.00000000000e+00 0.0000e+00 -1.0000e+00
       -1  1    3    3    0  504 -8.42915126181e+00 +9.89437053183e+00 -2.38066730907e+01  2.71239164366e+01  0.00000000000e+00 0.0000e+00 1.0000e+00
       24  2    1    2    0    0 -1.17622382325e+02 +1.19402507193e+02 -5.34850205171e+02  5.66418374049e+02  8.16887320292e+01 0.0000e+00 0.0000e+00
        2  1    6    6  505    0 -1.13928667620e+02 +6.36297441593e+01 -3.81268732410e+02  4.02981801030e+02  0.00000000000e+00 0.0000e+00 -1.0000e+00
       -1  1    6    6    0  505 -3.69371470445e+00 +5.57727630337e+01 -1.53581472761e+02  1.63436573019e+02  0.00000000000e+00 0.0000e+00 1.0000e+00
       21  1    1    2  503  501 +1.48978141299e+01 +6.34117385214e+01 +3.80820669172e+01  7.54535437792e+01  0.00000000000e+00 0.0000e+00 1.0000e+00
        1  1    1    2  501    0 +2.67446777014e+01 -2.04753315756e+02 -1.88670857707e+01  2.07352755043e+02  0.00000000000e+00 0.0000e+00 -1.0000e+00
        1  1    1    2  502    0 +1.55227685201e+02 +5.54106428374e+01 -1.63306500249e+03  1.64136140931e+03  0.00000000000e+00 0.0000e+00 -1.0000e+00
#  0.1300000e+05  0.1300000e+05  0.6513561e+02  0.1300000e+05  0.1300000e+05
<mgrwt>
<rscale>  2 0.16340957e+03</rscale>
<asrwt>  1 0.65135613e+02</asrwt>
<pdfrwt beam="1">  2        2        2 0.36347511e-01 0.27328404e-01 0.65135613e+02 0.18666519e+03</pdfrwt>
<pdfrwt beam="2">  1        2 0.36495239e+00 0.18666519e+03</pdfrwt>
<totfact> 0.17198869e-01</totfact>
</mgrwt>
<clustering>
<clus scale="   65.136">  1  5  2 -1</clus>
<clus scale="  109.628">  1  3  2 -1</clus>
<clus scale="  163.155">  1  7  2 -1</clus>
<clus scale="  168.454">  1  6  2 -1</clus>
<clus scale="  186.665">  1  3  2 -1</clus>
</clustering>
<rwgt>
  <wgt id="1">5.05225e-06</wgt>
  <wgt id="2">3.26754e-06</wgt>
  <wgt id="3">2.29142e-06</wgt>
  <wgt id="4">4.36815e-06</wgt>
  <wgt id="5">2.8251e-06</wgt>
  <wgt id="6">1.98114e-06</wgt>
  <wgt id="7">3.83892e-06</wgt>
  <wgt id="8">2.48282e-06</wgt>
  <wgt id="9">1.74112e-06</wgt>
  <wgt id="10">3.65356e-06</wgt>
  <wgt id="11">2.8251e-06</wgt>
  <wgt id="12">2.30759e-06</wgt>
  <wgt id="13">2.8251e-06</wgt>
  <wgt id="14">2.82871e-06</wgt>
  <wgt id="15">2.82203e-06</wgt>
  <wgt id="16">2.81636e-06</wgt>
  <wgt id="17">2.8347e-06</wgt>
  <wgt id="18">2.81175e-06</wgt>
  <wgt id="19">2.84486e-06</wgt>
  <wgt id="20">2.8189e-06</wgt>
  <wgt id="21">2.82921e-06</wgt>
  <wgt id="22">2.83258e-06</wgt>
  <wgt id="23">2.81436e-06</wgt>
  <wgt id="24">2.86638e-06</wgt>
  <wgt id="25">2.79972e-06</wgt>
  <wgt id="26">2.82492e-06</wgt>
  <wgt id="27">2.82528e-06</wgt>
  <wgt id="28">2.85113e-06</wgt>
  <wgt id="29">2.81543e-06</wgt>
  <wgt id="30">2.83033e-06</wgt>
  <wgt id="31">2.81806e-06</wgt>
  <wgt id="32">2.82364e-06</wgt>
  <wgt id="33">2.8265e-06</wgt>
  <wgt id="34">2.78848e-06</wgt>
  <wgt id="35">2.89219e-06</wgt>
  <wgt id="36">2.82861e-06</wgt>
  <wgt id="37">2.82475e-06</wgt>
  <wgt id="38">2.8195e-06</wgt>
  <wgt id="39">2.82836e-06</wgt>
  <wgt id="40">2.83475e-06</wgt>
  <wgt id="41">2.81556e-06</wgt>
  <wgt id="42">2.84404e-06</wgt>
  <wgt id="43">2.7908e-06</wgt>
  <wgt id="44">2.83439e-06</wgt>
  <wgt id="45">2.82151e-06</wgt>
  <wgt id="46">2.82265e-06</wgt>
  <wgt id="47">2.82684e-06</wgt>
  <wgt id="48">2.81272e-06</wgt>
  <wgt id="49">2.83488e-06</wgt>
  <wgt id="50">2.81702e-06</wgt>
  <wgt id="51">2.83372e-06</wgt>
  <wgt id="52">2.83154e-06</wgt>
  <wgt id="53">2.82362e-06</wgt>
</rwgt>
</event>
<event>
 10      0 +2.8251000e-06 1.98365700e+02 7.54677100e-03 1.10210200e-01
        4 -1    0    0  501    0 +0.00000000000e+00 +0.00000000000e+00 +7.03933040930e+01  7.03933040930e+01  0.00000000000e+00 0.0000e+00 -1.0000e+00
        2 -1    0    0  502    0 +0.00000000000e+00 +0.00000000000e+00 -2.18320508920e+03  2.18320508920e+03  0.00000000000e+00 0.0000e+00 -1.0000e+00
       24  2    1    2    0    0 +4.91100814445e+01 +2.58507465879e+00 -5.00088982322e+02  5.08844659751e+02  8.00962846035e+01 0.0000e+00 0.0000e+00
        4  1    3    3  503    0 +3.25147962823e+01 +1.98193437641e+01 -4.63910108777e+02  4.65470307742e+02  0.00000000000e+00 0.0000e+00 -1.0000e+00
       -3  1    3    3    0  503 +1.65952851622e+01 -1.72342691053e+01 -3.61788735452e+01  4.33743520091e+01  0.00000000000e+00 0.0000e+00 1.0000e+00
       24  2    1    2    0    0 -2.35309044118e+01 +1.81348790959e+02 -3.83376939578e+02  4.32634787495e+02  8.21820789816e+01 0.0000e+00 0.0000e+00
        2  1    6    6  504    0 -1.31333650523e+01 +4.76486031965e+00 -4.80343876591e+00  1.47736994501e+01  0.00000000000e+00 0.0000e+00 -1.0000e+00
       -1  1    6    6    0  504 -1.03975393594e+01 +1.76583930639e+02 -3.78573500812e+02  4.17861088044e+02  0.00000000000e+00 0.0000e+00 1.0000e+00
        1  1    1    2  501    0 +1.74979984382e+02 -8.67811876831e+01 -8.50051377619e+02  8.72201991549e+02  0.00000000000e+00 0.0000e+00 -1.0000e+00
        3  1    1    2  502    0 -2.00559161415e+02 -9.71526779345e+01 -3.79294485589e+02  4.39916954498e+02  0.00000000000e+00 0.0000e+00 -1.0000e+00
#  0.1300000e+05  0.1300000e+05  0.1300000e+05  0.1300000e+05
<mgrwt>
<rscale>  2 0.16444323e+03</rscale>
<asrwt>0</asrwt>
<pdfrwt beam="1">  1        2 0.33587771e+00 0.94201365e+02</pdfrwt>
<pdfrwt beam="2">  1        4 0.10829739e-01 0.19836572e+03</pdfrwt>
<totfact> 0.34651865e+00</totfact>
</mgrwt>
<clustering>
<clus scale="   94.201">  2  3  1 -1</clus>
<clus scale="  199.462">  1  4  2 -1</clus>
<clus scale="  197.276">  1  6  2 -1</clus>
<clus scale="  197.276">  2  3  1 -1</clus>
</clustering>
<rwgt>
  <wgt id="1">4.4432e-06</wgt>
  <wgt id="2">2.87496e-06</wgt>
  <wgt id="3">2.01671e-06</wgt>
  <wgt id="4">4.36613e-06</wgt>
  <wgt id="5">2.8251e-06</wgt>
  <wgt id="6">1.98173e-06</wgt>
  <wgt id="7">4.16488e-06</wgt>
  <wgt id="8">2.69488e-06</wgt>
  <wgt id="9">1.89039e-06</wgt>
  <wgt id="10">2.8251e-06</wgt>
  <wgt id="11">2.8251e-06</wgt>
  <wgt id="12">2.8251e-06</wgt>
  <wgt id="13">2.8251e-06</wgt>
  <wgt id="14">2.83083e-06</wgt>
  <wgt id="15">2.8204e-06</wgt>
  <wgt id="16">2.81415e-06</wgt>
  <wgt id="17">2.83721e-06</wgt>
  <wgt id="18">2.81917e-06</wgt>
  <wgt id="19">2.8339e-06</wgt>
  <wgt id="20">2.82523e-06</wgt>
  <wgt id="21">2.82492e-06</wgt>
  <wgt id="22">2.82673e-06</wgt>
  <wgt id="23">2.82276e-06</wgt>
  <wgt id="24">2.83177e-06</wgt>
  <wgt id="25">2.82081e-06</wgt>
  <wgt id="26">2.83173e-06</wgt>
  <wgt id="27">2.81603e-06</wgt>
  <wgt id="28">2.83701e-06</wgt>
  <wgt id="29">2.82065e-06</wgt>
  <wgt id="30">2.84008e-06</wgt>
  <wgt id="31">2.80223e-06</wgt>
  <wgt id="32">2.81761e-06</wgt>
  <wgt id="33">2.83221e-06</wgt>
  <wgt id="34">2.7949e-06</wgt>
  <wgt id="35">2.87905e-06</wgt>
  <wgt id="36">2.83896e-06</wgt>
  <wgt id="37">2.8177e-06</wgt>
  <wgt id="38">2.82733e-06</wgt>
  <wgt id="39">2.82455e-06</wgt>
  <wgt id="40">2.83343e-06</wgt>
  <wgt id="41">2.81895e-06</wgt>
  <wgt id="42">2.82585e-06</wgt>
  <wgt id="43">2.82694e-06</wgt>
  <wgt id="44">2.82956e-06</wgt>
  <wgt id="45">2.82341e-06</wgt>
  <wgt id="46">2.82591e-06</wgt>
  <wgt id="47">2.82454e-06</wgt>
  <wgt id="48">2.82844e-06</wgt>
  <wgt id="49">2.82793e-06</wgt>
  <wgt id="50">2.82538e-06</wgt>
  <wgt id="51">2.80737e-06</wgt>
  <wgt id="52">2.83073e-06</wgt>
  <wgt id="53">2.82402e-06</wgt>
</rwgt>
</event>
<event>
 10      0 +2.8251000e-06 4.34531300e+02 7.54677100e-03 9.70526000e-02
        2 -1    0    0  501    0 +0.00000000000e+00 +0.00000000000e+00 +9.21384909490e+02  9.21384909490e+02  0.00000000000e+00 0.0000e+00 -1.0000e+00
        2 -1    0    0  502    0 +0.00000000000e+00 +0.00000000000e+00 -1.61289482630e+03  1.61289482630e+03  0.00000000000e+00 0.0000e+00 -1.0000e+00
       24  2    1    2    0    0 +3.27766125371e+02 -1.45499754528e+02 -9.40728698654e+02  1.01258740731e+03  1.08452576990e+02 0.0000e+00 0.0000e+00
       14  1    3    3    0    0 +2.79844130398e+02 -1.61418661685e+02 -8.38066206041e+02  8.98177982009e+02  0.00000000000e+00 0.0000e+00 -1.0000e+00
      -13  1    3    3    0    0 +4.79219949729e+01 +1.59189071574e+01 -1.02662492613e+02  1.14409425297e+02  0.00000000000e+00 0.0000e+00 1.0000e+00
       24  2    1    2    0    0 -8.34040897348e+01 +3.32907373786e+02 +2.28565058898e+02  4.20330780529e+02  8.15623516407e+01 0.0000e+00 0.0000e+00
       12  1    6    6    0    0 -8.39285464331e+01 +3.37676567729e+02 +2.25155963972e+02  4.14445018563e+02  0.00000000000e+00 0.0000e+00 -1.0000e+00
      -11  1    6    6    0    0 +5.24456698258e-01 -4.76919394332e+00 +3.40909492575e+00  5.88576196512e+00  0.00000000000e+00 0.0000e+00 1.0000e+00
        1  1    1    2  501    0 -4.33288479184e+02 +2.94882659861e+02 +1.88331742702e+02  5.56923275317e+02  0.00000000000e+00 0.0000e+00 -1.0000e+00
        1  1    1    2  502    0 +1.88926443548e+02 -4.82290279119e+02 -1.67678019757e+02  5.44438272639e+02  0.00000000000e+00 0.0000e+00 -1.0000e+00
#  0.1300000e+05  0.1300000e+05  0.1300000e+05  0.1300000e+05
<mgrwt>
<rscale>  2 0.43288911e+03</rscale>
<asrwt>0</asrwt>
<pdfrwt beam="1">  1        2 0.14175152e+00 0.35313098e+03</pdfrwt>
<pdfrwt beam="2">  1        2 0.24813767e+00 0.35852014e+03</pdfrwt>
<totfact> 0.51551665e-01</totfact>
</mgrwt>
<clustering>
<clus scale="  353.131">  1  4  2 -1</clus>
<clus scale="  358.520">  2  3  1 -1</clus>
<clus scale="  526.658">  2  5  1 -1</clus>
<clus scale="  526.658">  1  3  2 -1</clus>
</clustering>
<rwgt>
  <wgt id="1">4.89979e-06</wgt>
  <wgt id="2">3.36517e-06</wgt>
  <wgt id="3">2.45802e-06</wgt>
  <wgt id="4">4.11343e-06</wgt>
  <wgt id="5">2.8251e-06</wgt>
  <wgt id="6">2.06354e-06</wgt>
  <wgt id="7">3.52627e-06</wgt>
  <wgt id="8">2.42184e-06</wgt>
  <wgt id="9">1.76898e-06</wgt>
  <wgt id="10">2.8251e-06</wgt>
  <wgt id="11">2.8251e-06</wgt>
  <wgt id="12">2.8251e-06</wgt>
  <wgt id="13">2.8251e-06</wgt>
  <wgt id="14">2.8281e-06</wgt>
  <wgt id="15">2.82264e-06</wgt>
  <wgt id="16">2.80838e-06</wgt>
  <wgt id="17">2.84377e-06</wgt>
  <wgt id="18">2.81086e-06</wgt>
  <wgt id="19">2.84624e-06</wgt>
  <wgt id="20">2.81658e-06</wgt>
  <wgt id="21">2.83085e-06</wgt>
  <wgt id="22">2.83354e-06</wgt>
  <wgt id="23">2.81316e-06</wgt>
  <wgt id="24">2.87114e-06</wgt>
  <wgt id="25">2.79678e-06</wgt>
  <wgt id="26">2.82553e-06</wgt>
  <wgt id="27">2.82466e-06</wgt>
  <wgt id="28">2.87702e-06</wgt>
  <wgt id="29">2.80633e-06</wgt>
  <wgt id="30">2.83104e-06</wgt>
  <wgt id="31">2.81772e-06</wgt>
  <wgt id="32">2.82639e-06</wgt>
  <wgt id="33">2.8239e-06</wgt>
  <wgt id="34">2.7831e-06</wgt>
  <wgt id="35">2.90302e-06</wgt>
  <wgt id="36">2.84774e-06</wgt>
  <wgt id="37">2.81258e-06</wgt>
  <wgt id="38">2.81356e-06</wgt>
  <wgt id="39">2.83125e-06</wgt>
  <wgt id="40">2.82904e-06</wgt>
  <wgt id="41">2.82139e-06</wgt>
  <wgt id="42">2.84985e-06</wgt>
  <wgt id="43">2.78564e-06</wgt>
  <wgt id="44">2.83169e-06</wgt>
  <wgt id="45">2.82278e-06</wgt>
  <wgt id="46">2.82341e-06</wgt>
  <wgt id="47">2.82621e-06</wgt>
  <wgt id="48">2.82503e-06</wgt>
  <wgt id="49">2.82999e-06</wgt>
  <wgt id="50">2.81694e-06</wgt>
  <wgt id="51">2.83782e-06</wgt>
  <wgt id="52">2.84158e-06</wgt>
  <wgt id="53">2.82102e-06</wgt>
</rwgt>
</event>
<event>
 11      0 +2.8251000e-06 2.73943100e+02 7.54677100e-03 1.06586600e-01
        2 -1    0    0  503    0 +0.00000000000e+00 +0.00000000000e+00 +8.70945345640e+02  8.70945345640e+02  0.00000000000e+00 0.0000e+00 -1.0000e+00
        2 -1    0    0  502    0 +0.00000000000e+00 +0.00000000000e+00 -2.06096284790e+02  2.06096284790e+02  0.00000000000e+00 0.0000e+00 -1.0000e+00
       24  2    1    2    0    0 -8.58219892576e+01 -5.47024022748e+01 +4.54446001701e+02  4.71811215211e+02  7.56762028785e+01 0.0000e+00 0.0000e+00
        4  1    3    3  504    0 -3.04854789031e+01 -5.48074431313e+01 +3.25598439965e+02  3.31583419903e+02  0.00000000000e+00 0.0000e+00 -1.0000e+00
       -3  1    3    3    0  504 -5.53365103545e+01 +1.05040856526e-01 +1.28847561736e+02  1.40227795309e+02  0.00000000000e+00 0.0000e+00 1.0000e+00
       24  2    1    2    0    0 -4.57529820668e+01 +1.52488623513e+01 -1.30370583767e+02  1.60669137457e+02  8.05743101016e+01 0.0000e+00 0.0000e+00
       14  1    6    6    0    0 -6.71597951777e+01 +1.23928562502e+01 -1.16376027833e+02  1.34934802140e+02  0.00000000000e+00 0.0000e+00 -1.0000e+00
      -13  1    6    6    0    0 +2.14068131109e+01 +2.85600610108e+00 -1.39945559341e+01  2.57343353170e+01  0.00000000000e+00 0.0000e+00 1.0000e+00
       21  1    1    2  503  501 +7.36692816819e+01 -7.75905266984e+00 +7.05582362204e+01  1.02302642490e+02  0.00000000000e+00 0.0000e+00 1.0000e+00
        1  1    1    2  501    0 +1.03465606935e+02 +2.81773120516e+01 +2.72488824874e+02  2.92829732804e+02  0.00000000000e+00 0.0000e+00 -1.0000e+00
        1  1    1    2  502    0 -4.55599172923e+01 +1.90352805418e+01 -2.27341817847e+00  4.94289024681e+01  0.00000000000e+00 0.0000e+00 -1.0000e+00
#  0.1300000e+05  0.1300000e+05  0.6703077e+02  0.1300000e+05  0.1300000e+05
<mgrwt>
<rscale>  2 0.20950454e+03</rscale>
<asrwt>  1 0.67030768e+02</asrwt>
<pdfrwt beam="1">  1        2 0.13399159e+00 0.27394314e+03</pdfrwt>
<pdfrwt beam="2">  1        2 0.31707121e-01 0.93711408e+02</pdfrwt>
<totfact> 0.11522418e+00</totfact>
</mgrwt>
<clustering>
<clus scale="   49.494">  3  7 -1 -1</clus>
<clus scale="   67.031">  5  6 -1 -1</clus>
<clus scale="   93.711">  2  4  1 -1</clus>
<clus scale="  178.190">  2  5  1 -1</clus>
<clus scale="  273.943">  1  3  2 -1</clus>
</clustering>
<rwgt>
  <wgt id="1">4.36129e-06</wgt>
  <wgt id="2">2.86952e-06</wgt>
  <wgt id="3">2.03538e-06</wgt>
  <wgt id="4">4.29377e-06</wgt>
  <wgt id="5">2.8251e-06</wgt>
  <wgt id="6">2.00387e-06</wgt>
  <wgt id="7">4.16442e-06</wgt>
  <wgt id="8">2.73999e-06</wgt>
  <wgt id="9">1.9435e-06</wgt>
  <wgt id="10">3.64829e-06</wgt>
  <wgt id="11">2.8251e-06</wgt>
  <wgt id="12">2.30961e-06</wgt>
  <wgt id="13">2.8251e-06</wgt>
  <wgt id="14">2.82845e-06</wgt>
  <wgt id="15">2.82236e-06</wgt>
  <wgt id="16">2.8267e-06</wgt>
  <wgt id="17">2.82309e-06</wgt>
  <wgt id="18">2.81387e-06</wgt>
  <wgt id="19">2.84166e-06</wgt>
  <wgt id="20">2.81527e-06</wgt>
  <wgt id="21">2.83168e-06</wgt>
  <wgt id="22">2.83063e-06</wgt>
  <wgt id="23">2.81723e-06</wgt>
  <wgt id="24">2.85645e-06</wgt>
  <wgt id="25">2.80569e-06</wgt>
  <wgt id="26">2.82406e-06</wgt>
  <wgt id="27">2.82648e-06</wgt>
  <wgt id="28">2.85764e-06</wgt>
  <wgt id="29">2.81323e-06</wgt>
  <wgt id="30">2.83237e-06</wgt>
  <wgt id="31">2.8155e-06</wgt>
  <wgt id="32">2.8302e-06</wgt>
  <wgt id="33">2.82026e-06</wgt>
  <wgt id="34">2.7945e-06</wgt>
  <wgt id="35">2.88071e-06</wgt>
  <wgt id="36">2.83505e-06</wgt>
  <wgt id="37">2.81985e-06</wgt>
  <wgt id="38">2.81701e-06</wgt>
  <wgt id="39">2.82893e-06</wgt>
  <wgt id="40">2.82572e-06</wgt>
  <wgt id="41">2.82505e-06</wgt>
  <wgt id="42">2.84403e-06</wgt>
  <wgt id="43">2.78861e-06</wgt>
  <wgt id="44">2.83442e-06</wgt>
  <wgt id="45">2.82142e-06</wgt>
  <wgt id="46">2.8232e-06</wgt>
  <wgt id="47">2.82678e-06</wgt>
  <wgt id="48">2.79664e-06</wgt>
  <wgt id="49">2.83941e-06</wgt>
  <wgt id="50">2.81337e-06</wgt>
  <wgt id="51">2.83509e-06</wgt>
  <wgt id="52">2.82693e-06</wgt>
  <wgt id="53">2.8244e-06</wgt>
</rwgt>
</event>
<event>
 10      0 +2.8251000e-06 7.52115600e+02 7.54677100e-03 9.70522500e-02
       -1 -1    0    0    0  501 +0.00000000000e+00 +0.00000000000e+00 +6.46717160290e+02  6.46717160290e+02  0.00000000000e+00 0.0000e+00 1.0000e+00
        2 -1    0    0  502    0 +0.00000000000e+00 +0.00000000000e+00 -8.50932946490e+02  8.50932946490e+02  0.00000000000e+00 0.0000e+00 -1.0000e+00
       24  2    1    2    0    0 -2.05421598381e+01 +1.91300200373e+01 -6.94985163002e+02  7.00322805907e+02  8.16070933322e+01 0.0000e+00 0.0000e+00
       12  1    3    3    0    0 -4.54229620319e+01 +6.00936372374e+00 -5.85218315491e+02  5.87009228818e+02  0.00000000000e+00 0.0000e+00 -1.0000e+00
      -11  1    3    3    0    0 +2.48808021938e+01 +1.31206563136e+01 -1.09766847512e+02  1.13313577088e+02  0.00000000000e+00 0.0000e+00 1.0000e+00
       24  2    1    2    0    0 +1.06099982586e+01 +1.53006782878e+01 +4.76493127140e+02  4.83603544324e+02  8.04984785724e+01 0.0000e+00 0.0000e+00
        4  1    6    6  503    0 +1.35459434048e+01 -1.65781573617e+00 +1.03122348502e+01  1.71050613371e+01  0.00000000000e+00 0.0000e+00 -1.0000e+00
       -3  1    6    6    0  503 -2.93594514614e+00 +1.69584940240e+01 +4.66180892289e+02  4.66498482987e+02  0.00000000000e+00 0.0000e+00 1.0000e+00
        1  1    1    2  502    0 -4.58644055141e+01 -3.01374048158e+00 -1.39644746858e+02  1.47014562713e+02  0.00000000000e+00 0.0000e+00 -1.0000e+00
       -2  1    1    2    0  501 +5.57965670936e+01 -3.14169578435e+01 +1.53920996520e+02  1.66709193836e+02  0.00000000000e+00 0.0000e+00 1.0000e+00
#  0.1300000e+05  0.1300000e+05  0.1300000e+05  0.6410235e+02
<mgrwt>
<rscale>  2 0.43290160e+03</rscale>
<asrwt>0</asrwt>
<pdfrwt beam="1">  1        2 0.13091276e+00 0.75211564e+03</pdfrwt>
<pdfrwt beam="2">  1       -1 0.99494948e-01 0.82547308e+02</pdfrwt>
<totfact> 0.48623014e-01</totfact>
</mgrwt>
<clustering>
<clus scale="   46.844">  3  5 -1 -1</clus>
<clus scale="   64.102">  3  6 -1 -1</clus>
<clus scale="   82.547">  1  4  2 -1</clus>
<clus scale="  752.116">  2  3  1 -1</clus>
</clustering>
<rwgt>
  <wgt id="1">4.71311e-06</wgt>
  <wgt id="2">3.23696e-06</wgt>
  <wgt id="3">2.36438e-06</wgt>
  <wgt id="4">4.11343e-06</wgt>
  <wgt id="5">2.8251e-06</wgt>
  <wgt id="6">2.06354e-06</wgt>
  <wgt id="7">3.63082e-06</wgt>
  <wgt id="8">2.49365e-06</wgt>
  <wgt id="9">1.82144e-06</wgt>
  <wgt id="10">2.8251e-06</wgt>
  <wgt id="11">2.8251e-06</wgt>
  <wgt id="12">2.8251e-06</wgt>
  <wgt id="13">2.8251e-06</wgt>
  <wgt id="14">2.82943e-06</wgt>
  <wgt id="15">2.82174e-06</wgt>
  <wgt id="16">2.83865e-06</wgt>
  <wgt id="17">2.80996e-06</wgt>
  <wgt id="18">2.80958e-06</wgt>
  <wgt id="19">2.84835e-06</wgt>
  <wgt id="20">2.85312e-06</wgt>
  <wgt id="21">2.80602e-06</wgt>
  <wgt id="22">2.83834e-06</wgt>
  <wgt id="23">2.80608e-06</wgt>
  <wgt id="24">2.89455e-06</wgt>
  <wgt id="25">2.78268e-06</wgt>
  <wgt id="26">2.82585e-06</wgt>
  <wgt id="27">2.82417e-06</wgt>
  <wgt id="28">2.86226e-06</wgt>
  <wgt id="29">2.8117e-06</wgt>
  <wgt id="30">2.81613e-06</wgt>
  <wgt id="31">2.83616e-06</wgt>
  <wgt id="32">2.84407e-06</wgt>
  <wgt id="33">2.80676e-06</wgt>
  <wgt id="34">2.81314e-06</wgt>
  <wgt id="35">2.84598e-06</wgt>
  <wgt id="36">2.81466e-06</wgt>
  <wgt id="37">2.82658e-06</wgt>
  <wgt id="38">2.8886e-06</wgt>
  <wgt id="39">2.79626e-06</wgt>
  <wgt id="40">2.81423e-06</wgt>
  <wgt id="41">2.83668e-06</wgt>
  <wgt id="42">2.83629e-06</wgt>
  <wgt id="43">2.79213e-06</wgt>
  <wgt id="44">2.84694e-06</wgt>
  <wgt id="45">2.81667e-06</wgt>
  <wgt id="46">2.83877e-06</wgt>
  <wgt id="47">2.81781e-06</wgt>
  <wgt id="48">2.81294e-06</wgt>
  <wgt id="49">2.83325e-06</wgt>
  <wgt id="50">2.82086e-06</wgt>
  <wgt id="51">2.83865e-06</wgt>
  <wgt id="52">2.80809e-06</wgt>
  <wgt id="53">2.82998e-06</wgt>
</rwgt>
</event>
<event>
 10      0 +2.8251000e-06 4.89720000e+02 7.54677100e-03 9.65573800e-02
        2 -1    0    0  501    0 +0.00000000000e+00 +0.00000000000e+00 +3.35623283750e+02  3.35623283750e+02  0.00000000000e+00 0.0000e+00 -1.0000e+00
        2 -1    0    0  502    0 +0.00000000000e+00 +0.00000000000e+00 -9.40572273680e+02  9.40572273680e+02  0.00000000000e+00 0.0000e+00 -1.0000e+00
       24  2    1    2    0    0 +1.01292246447e+02 -1.74095968769e+02 +2.02409721588e+02  2.95594455044e+02  7.63993516168e+01 0.0000e+00 0.0000e+00
       12  1    3    3    0    0 +8.88498619821e+01 -1.44703175588e+02 +1.22015124240e+02  2.09095666007e+02  0.00000000000e+00 0.0000e+00 -1.0000e+00
      -11  1    3    3    0    0 +1.24423844651e+01 -2.93927931815e+01 +8.03945973485e+01  8.64987890378e+01  0.00000000000e+00 0.0000e+00 1.0000e+00
       24  2    1    2    0    0 -2.26560371456e+01 +1.71347411864e+02 -7.61280592653e+02  7.84782493335e+02  8.03877448548e+01 0.0000e+00 0.0000e+00
       14  1    6    6    0    0 -1.11776086149e+01 +1.77199612642e+02 -7.00497289028e+02  7.22648665390e+02  0.00000000000e+00 0.0000e+00 -1.0000e+00
      -13  1    6    6    0    0 -1.14784285307e+01 -5.85220077724e+00 -6.07833036249e+01  6.21338279445e+01  0.00000000000e+00 0.0000e+00 1.0000e+00
        1  1    1    2  501    0 -9.51311461083e+01 -5.60778042432e+01 +1.25539785393e+01  1.11140710209e+02  0.00000000000e+00 0.0000e+00 -1.0000e+00
        1  1    1    2  502    0 +1.64949368068e+01 +5.88263611483e+01 -5.86320974046e+01  8.46778988419e+01  0.00000000000e+00 0.0000e+00 -1.0000e+00
#  0.1300000e+05  0.1300000e+05  0.1300000e+05  0.1300000e+05
<mgrwt>
<rscale>  2 0.45130715e+03</rscale>
<asrwt>0</asrwt>
<pdfrwt beam="1">  1        2 0.51634351e-01 0.35322003e+03</pdfrwt>
<pdfrwt beam="2">  1        2 0.14470343e+00 0.48972000e+03</pdfrwt>
<totfact> 0.39451259e+00</totfact>
</mgrwt>
<clustering>
<clus scale="   61.083">  3  6 -1 -1</clus>
<clus scale="  109.276">  4  5 -1 -1</clus>
<clus scale="  353.220">  1  3  2 -1</clus>
<clus scale="  489.720">  1  3  2 -1</clus>
</clustering>
<rwgt>
  <wgt id="1">4.36483e-06</wgt>
  <wgt id="2">3.00432e-06</wgt>
  <wgt id="3">2.19781e-06</wgt>
  <wgt id="4">4.10445e-06</wgt>
  <wgt id="5">2.8251e-06</wgt>
  <wgt id="6">2.06669e-06</wgt>
  <wgt id="7">3.85934e-06</wgt>
  <wgt id="8">2.65639e-06</wgt>
  <wgt id="9">1.94328e-06</wgt>
  <wgt id="10">2.8251e-06</wgt>
  <wgt id="11">2.8251e-06</wgt>
  <wgt id="12">2.8251e-06</wgt>
  <wgt id="13">2.8251e-06</wgt>
  <wgt id="14">2.82819e-06</wgt>
  <wgt id="15">2.82252e-06</wgt>
  <wgt id="16">2.82202e-06</wgt>
  <wgt id="17">2.82836e-06</wgt>
  <wgt id="18">2.81297e-06</wgt>
  <wgt id="19">2.84307e-06</wgt>
  <wgt id="20">2.81332e-06</wgt>
  <wgt id="21">2.83303e-06</wgt>
  <wgt id="22">2.83133e-06</wgt>
  <wgt id="23">2.8162e-06</wgt>
  <wgt id="24">2.86037e-06</wgt>
  <wgt id="25">2.80329e-06</wgt>
  <wgt id="26">2.82385e-06</wgt>
  <wgt id="27">2.82679e-06</wgt>
  <wgt id="28">2.86582e-06</wgt>
  <wgt id="29">2.8103e-06</wgt>
  <wgt id="30">2.83006e-06</wgt>
  <wgt id="31">2.81865e-06</wgt>
  <wgt id="32">2.82985e-06</wgt>
  <wgt id="33">2.82051e-06</wgt>
  <wgt id="34">2.79257e-06</wgt>
  <wgt id="35">2.88487e-06</wgt>
  <wgt id="36">2.83997e-06</wgt>
  <wgt id="37">2.81759e-06</wgt>
  <wgt id="38">2.81521e-06</wgt>
  <wgt id="39">2.82988e-06</wgt>
  <wgt id="40">2.82563e-06</wgt>
  <wgt id="41">2.82494e-06</wgt>
  <wgt id="42">2.84606e-06</wgt>
  <wgt id="43">2.78723e-06</wgt>
  <wgt id="44">2.83497e-06</wgt>
  <wgt id="45">2.82125e-06</wgt>
  <wgt id="46">2.82496e-06</wgt>
  <wgt id="47">2.82564e-06</wgt>
  <wgt id="48">2.8008e-06</wgt>
  <wgt id="49">2.83809e-06</wgt>
  <wgt id="50">2.81444e-06</wgt>
  <wgt id="51">2.83803e-06</wgt>
  <wgt id="52">2.82963e-06</wgt>
  <wgt id="53">2.82374e-06</wgt>
</rwgt>
</event>
<event>
 10      0 +2.8251000e-06 3.27521400e+02 7.54677100e-03 1.04160100e-01
        2 -1    0    0  501    0 +0.00000000000e+00 +0.00000000000e+00 +1.22180963760e+03  1.22180963760e+03  0.00000000000e+00 0.0000e+00 -1.0000e+00
        2 -1    0    0  502    0 +0.00000000000e+00 +0.00000000000e+00 -4.56122882110e+02  4.56122882110e+02  0.00000000000e+00 0.0000e+00 -1.0000e+00
       24  2    1    2    0    0 -1.22185169774e+02 -1.93442996157e+02 +4.35848433273e+02  4.98705426013e+02  7.99614699291e+01 0.0000e+00 0.0000e+00
        4  1    3    3  503    0 -3.65386314369e+01 -4.31105681461e+01 +1.88944136264e+02  1.97214297914e+02  0.00000000000e+00 0.0000e+00 -1.0000e+00
       -3  1    3    3    0  503 -8.56465383372e+01 -1.50332428011e+02 +2.46904297009e+02  3.01491128099e+02  0.00000000000e+00 0.0000e+00 1.0000e+00
       24  2    1    2    0    0 +3.65369040034e+00 -6.67692984420e+00 -1.03886481986e+02  1.29180154443e+02  7.64014418507e+01 0.0000e+00 0.0000e+00
        4  1    6    6  504    0 +2.33300412997e+01 +8.81441679314e+00 -1.00927478607e+02  1.03963169961e+02  0.00000000000e+00 0.0000e+00 -1.0000e+00
       -3  1    6    6    0  504 -1.96763508994e+01 -1.54913466373e+01 -2.95900337873e+00  2.52169844817e+01  0.00000000000e+00 0.0000e+00 1.0000e+00
        1  1    1    2  501    0 +2.30354874726e+02 +4.74732887310e+02 +3.66837594331e+00  5.27681854516e+02  0.00000000000e+00 0.0000e+00 -1.0000e+00
        1  1    1    2  502    0 -1.11823395352e+02 -2.74612961308e+02 +4.30056428259e+02  5.22365084738e+02  0.00000000000e+00 0.0000e+00 -1.0000e+00
#  0.1300000e+05  0.1300000e+05  0.1300000e+05  0.1300000e+05
<mgrwt>
<rscale>  2 0.24879236e+03</rscale>
<asrwt>0</asrwt>
<pdfrwt beam="1">  1        2 0.18797071e+00 0.24277931e+03</pdfrwt>
<pdfrwt beam="2">  1        2 0.70172751e-01 0.80835295e+02</pdfrwt>
<totfact> 0.23526760e+00</totfact>
</mgrwt>
<clustering>
<clus scale="   80.835">  2  4  1 -1</clus>
<clus scale="  242.779">  1  3  2 -1</clus>
<clus scale="  441.843">  1  6  2 -1</clus>
<clus scale="  441.843">  1  3  2 -1</clus>
</clustering>
<rwgt>
  <wgt id="1">4.67908e-06</wgt>
  <wgt id="2">3.11301e-06</wgt>
  <wgt id="3">2.22458e-06</wgt>
  <wgt id="4">4.24633e-06</wgt>
  <wgt id="5">2.8251e-06</wgt>
  <wgt id="6">2.01883e-06</wgt>
  <wgt id="7">3.86758e-06</wgt>
  <wgt id="8">2.57311e-06</wgt>
  <wgt id="9">1.83876e-06</wgt>
  <wgt id="10">2.8251e-06</wgt>
  <wgt id="11">2.8251e-06</wgt>
  <wgt id="12">2.8251e-06</wgt>
  <wgt id="13">2.8251e-06</wgt>
  <wgt id="14">2.82805e-06</wgt>
  <wgt id="15">2.82268e-06</wgt>
  <wgt id="16">2.81837e-06</wgt>
  <wgt id="17">2.83249e-06</wgt>
  <wgt id="18">2.81222e-06</wgt>
  <wgt id="19">2.8442e-06</wgt>
  <wgt id="20">2.81366e-06</wgt>
  <wgt id="21">2.83279e-06</wgt>
  <wgt id="22">2.83203e-06</wgt>
  <wgt id="23">2.81521e-06</wgt>
  <wgt id="24">2.86394e-06</wgt>
  <wgt id="25">2.80113e-06</wgt>
  <wgt id="26">2.82418e-06</wgt>
  <wgt id="27">2.82638e-06</wgt>
  <wgt id="28">2.87032e-06</wgt>
  <wgt id="29">2.80873e-06</wgt>
  <wgt id="30">2.83053e-06</wgt>
  <wgt id="31">2.81812e-06</wgt>
  <wgt id="32">2.82919e-06</wgt>
  <wgt id="33">2.82122e-06</wgt>
  <wgt id="34">2.7889e-06</wgt>
  <wgt id="35">2.89176e-06</wgt>
  <wgt id="36">2.84241e-06</wgt>
  <wgt id="37">2.81623e-06</wgt>
  <wgt id="38">2.81506e-06</wgt>
  <wgt id="39">2.83011e-06</wgt>
  <wgt id="40">2.8265e-06</wgt>
  <wgt id="41">2.82409e-06</wgt>
  <wgt id="42">2.84765e-06</wgt>
  <wgt id="43">2.78584e-06</wgt>
  <wgt id="44">2.8345e-06</wgt>
  <wgt id="45">2.82155e-06</wgt>
  <wgt id="46">2.8248e-06</wgt>
  <wgt id="47">2.82561e-06</wgt>
  <wgt id="48">2.80598e-06</wgt>
  <wgt id="49">2.8365e-06</wgt>
  <wgt id="50">2.81462e-06</wgt>
  <wgt id="51">2.8388e-06</wgt>
  <wgt id="52">2.83251e-06</wgt>
  <wgt id="53">2.82309e-06</wgt>
</rwgt>
</event>
<event>
 10      0 +2.8251000e-06 9.20300000e+02 7.54677100e-03 9.15654800e-02
        2 -1    0    0  502    0 +0.00000000000e+00 +0.00000000000e+00 +1.83710354730e+03  1.83710354730e+03  0.00000000000e+00 0.0000e+00 -1.0000e+00
       -1 -1    0    0    0  501 +0.00000000000e+00 +0.00000000000e+00 -2.49590709400e+02  2.49590709400e+02  0.00000000000e+00 0.0000e+00 1.0000e+00
       24  2    1    2    0    0 +5.21326075287e+01 -1.78014514344e+02 +8.98717487577e+01  2.21319511878e+02  8.06127721164e+01 0.0000e+00 0.0000e+00
        2  1    3    3  503    0 -1.08436645965e+01 -1.00532111569e+01 +2.78289104577e+01  3.15134951046e+01  0.00000000000e+00 0.0000e+00 -1.0000e+00
       -1  1    3    3    0  503 +6.29762721252e+01 -1.67961303187e+02 +6.20428383000e+01  1.89806016773e+02  0.00000000000e+00 0.0000e+00 1.0000e+00
       24  2    1    2    0    0 -2.59822647205e+02 -1.62159744499e+02 +8.50213697485e+02  9.07244272699e+02  8.01576460348e+01 0.0000e+00 0.0000e+00
       12  1    6    6    0    0 -1.30868768405e+02 -3.73036617467e+01 +4.02928871977e+02  4.25287989010e+02  0.00000000000e+00 0.0000e+00 -1.0000e+00
      -11  1    6    6    0    0 -1.28953878800e+02 -1.24856082752e+02 +4.47284825508e+02  4.81956283689e+02  0.00000000000e+00 0.0000e+00 1.0000e+00
        1  1    1    2  502    0 -3.45733212726e+01 -1.27823317577e+02 +2.97244960730e+02  3.25405411356e+02  0.00000000000e+00 0.0000e+00 -1.0000e+00
       -2  1    1    2    0  501 +2.42263360949e+02 +4.67997576419e+02 +3.50182430927e+02  6.32725060767e+02  0.00000000000e+00 0.0000e+00 1.0000e+00
#  0.1300000e+05  0.1300000e+05  0.1300000e+05  0.3998494e+03
<mgrwt>
<rscale>  2 0.70493107e+03</rscale>
<asrwt>0</asrwt>
<pdfrwt beam="1">  1        2 0.28263131e+00 0.31680964e+03</pdfrwt>
<pdfrwt beam="2">  1       -1 0.38398571e-01 0.92029997e+03</pdfrwt>
<totfact> 0.66658469e-01</totfact>
</mgrwt>
<clustering>
<clus scale="  132.199">  3  5 -1 -1</clus>
<clus scale="  316.810">  1  4  2 -1</clus>
<clus scale="  399.849">  3  6 -1 -1</clus>
<clus scale="  920.300">  1  3  2 -1</clus>
</clustering>
<rwgt>
  <wgt id="1">4.59792e-06</wgt>
  <wgt id="2">3.23584e-06</wgt>
  <wgt id="3">2.40408e-06</wgt>
  <wgt id="4">4.01429e-06</wgt>
  <wgt id="5">2.8251e-06</wgt>
  <wgt id="6">2.09892e-06</wgt>
  <wgt id="7">3.54821e-06</wgt>
  <wgt id="8">2.49709e-06</wgt>
  <wgt id="9">1.85522e-06</wgt>
  <wgt id="10">2.8251e-06</wgt>
  <wgt id="11">2.8251e-06</wgt>
  <wgt id="12">2.8251e-06</wgt>
  <wgt id="13">2.8251e-06</wgt>
  <wgt id="14">2.83049e-06</wgt>
  <wgt id="15">2.82064e-06</wgt>
  <wgt id="16">2.82805e-06</wgt>
  <wgt id="17">2.82159e-06</wgt>
  <wgt id="18">2.81033e-06</wgt>
  <wgt id="19">2.84694e-06</wgt>
  <wgt id="20">2.8395e-06</wgt>
  <wgt id="21">2.81542e-06</wgt>
  <wgt id="22">2.83539e-06</wgt>
  <wgt id="23">2.81045e-06</wgt>
  <wgt id="24">2.87944e-06</wgt>
  <wgt id="25">2.79199e-06</wgt>
  <wgt id="26">2.8265e-06</wgt>
  <wgt id="27">2.8231e-06</wgt>
  <wgt id="28">2.85119e-06</wgt>
  <wgt id="29">2.81556e-06</wgt>
  <wgt id="30">2.82668e-06</wgt>
  <wgt id="31">2.82233e-06</wgt>
  <wgt id="32">2.83436e-06</wgt>
  <wgt id="33">2.8163e-06</wgt>
  <wgt id="34">2.80181e-06</wgt>
  <wgt id="35">2.86794e-06</wgt>
  <wgt id="36">2.84221e-06</wgt>
  <wgt id="37">2.81424e-06</wgt>
  <wgt id="38">2.83432e-06</wgt>
  <wgt id="39">2.82151e-06</wgt>
  <wgt id="40">2.82356e-06</wgt>
  <wgt id="41">2.82708e-06</wgt>
  <wgt id="42">2.8449e-06</wgt>
  <wgt id="43">2.78342e-06</wgt>
  <wgt id="44">2.83092e-06</wgt>
  <wgt id="45">2.82315e-06</wgt>
  <wgt id="46">2.81771e-06</wgt>
  <wgt id="47">2.83055e-06</wgt>
  <wgt id="48">2.8353e-06</wgt>
  <wgt id="49">2.82351e-06</wgt>
  <wgt id="50">2.83277e-06</wgt>
  <wgt id="51">2.81744e-06</wgt>
  <wgt id="52">2.83813e-06</wgt>
  <wgt id="53">2.82185e-06</wgt>
</rwgt>
</event>
<event>
 11      0 +2.8251000e-06 1.07125400e+03 7.54677100e-03 8.96312700e-02
        2 -1    0    0  503    0 +0.00000000000e+00 +0.00000000000e+00 +4.30492771120e+02  4.30492771120e+02  0.00000000000e+00 0.0000e+00 -1.0000e+00
        2 -1    0    0  502    0 +0.00000000000e+00 +0.00000000000e+00 -1.67667110960e+03  1.67667110960e+03  0.00000000000e+00 0.0000e+00 -1.0000e+00
       24  2    1    2    0    0 +8.06771777721e+01 +5.30349895958e+01 +1.04147434998e+02  1.63497234048e+02  8.10132099711e+01 0.0000e+00 0.0000e+00
       14  1    3    3    0    0 +2.44288446691e-02 +2.67430655213e+01 -2.91461074672e+00  2.69014331598e+01  0.00000000000e+00 0.0000e+00 -1.0000e+00
      -13  1    3    3    0    0 +8.06527489274e+01 +2.62919240745e+01 +1.07062045745e+02  1.36595800888e+02  0.00000000000e+00 0.0000e+00 1.0000e+00
       24  2    1    2    0    0 -1.79902892010e+02 -2.80700920001e+01 -1.30604162231e+03  1.32110361952e+03  8.01066393379e+01 0.0000e+00 0.0000e+00
        4  1    6    6  504    0 -1.52587334917e+02 -5.25666646196e+01 -1.01330667526e+03  1.02607824611e+03  0.00000000000e+00 0.0000e+00 -1.0000e+00
       -3  1    6    6    0  504 -2.73155570935e+01 +2.44965726195e+01 -2.92734947053e+02  2.95025373410e+02  0.00000000000e+00 0.0000e+00 1.0000e+00
       21  1    1    2  503  501 +4.51764269996e+01 -4.53416389471e+01 +6.51039940170e+01  9.12978850567e+01  0.00000000000e+00 0.0000e+00 -1.0000e+00
        1  1    1    2  501    0 +1.18277823487e+02 +4.57970692874e+01 +1.87542888280e+02  2.26405278270e+02  0.00000000000e+00 0.0000e+00 -1.0000e+00
        1  1    1    2  502    0 -6.42285362483e+01 -2.54203279360e+01 -2.96931033462e+02  3.04859863829e+02  0.00000000000e+00 0.0000e+00 -1.0000e+00
#  0.1300000e+05  0.1300000e+05  0.6424781e+02  0.1300000e+05  0.1300000e+05
<mgrwt>
<rscale>  2 0.84935124e+03</rscale>
<asrwt>  1 0.64247813e+02</asrwt>
<pdfrwt beam="1">  2        2        2 0.66229657e-01 0.53613228e-01 0.64247813e+02 0.10712541e+04</pdfrwt>
<pdfrwt beam="2">  1        2 0.25794940e+00 0.10712541e+04</pdfrwt>
<totfact> 0.12651391e-01</totfact>
</mgrwt>
<clustering>
<clus scale="   64.248">  1  5  2 -1</clus>
<clus scale="   68.148">  3  7 -1 -1</clus>
<clus scale="  146.719">  4  6 -1 -1</clus>
<clus scale="  423.323">  1  3  2 -1</clus>
<clus scale=" 1071.254">  1  3  2 -1</clus>
</clustering>
<rwgt>
  <wgt id="1">4.45329e-06</wgt>
  <wgt id="2">3.16064e-06</wgt>
  <wgt id="3">2.36236e-06</wgt>
  <wgt id="4">3.98053e-06</wgt>
  <wgt id="5">2.8251e-06</wgt>
  <wgt id="6">2.11157e-06</wgt>
  <wgt id="7">3.59175e-06</wgt>
  <wgt id="8">2.54917e-06</wgt>
  <wgt id="9">1.90533e-06</wgt>
  <wgt id="10">3.6561e-06</wgt>
  <wgt id="11">2.8251e-06</wgt>
  <wgt id="12">2.30663e-06</wgt>
  <wgt id="13">2.8251e-06</wgt>
  <wgt id="14">2.82833e-06</wgt>
  <wgt id="15">2.82251e-06</wgt>
  <wgt id="16">2.81409e-06</wgt>
  <wgt id="17">2.83736e-06</wgt>
  <wgt id="18">2.81165e-06</wgt>
  <wgt id="19">2.84512e-06</wgt>
  <wgt id="20">2.81592e-06</wgt>
  <wgt id="21">2.83131e-06</wgt>
  <wgt id="22">2.83269e-06</wgt>
  <wgt id="23">2.81428e-06</wgt>
  <wgt id="24">2.86705e-06</wgt>
  <wgt id="25">2.79925e-06</wgt>
  <wgt id="26">2.82475e-06</wgt>
  <wgt id="27">2.82562e-06</wgt>
  <wgt id="28">2.86808e-06</wgt>
  <wgt id="29">2.80952e-06</wgt>
  <wgt id="30">2.82942e-06</wgt>
  <wgt id="31">2.8196e-06</wgt>
  <wgt id="32">2.82676e-06</wgt>
  <wgt id="33">2.82346e-06</wgt>
  <wgt id="34">2.78735e-06</wgt>
  <wgt id="35">2.89487e-06</wgt>
  <wgt id="36">2.83777e-06</wgt>
  <wgt id="37">2.81958e-06</wgt>
  <wgt id="38">2.81645e-06</wgt>
  <wgt id="39">2.82979e-06</wgt>
  <wgt id="40">2.82957e-06</wgt>
  <wgt id="41">2.8208e-06</wgt>
  <wgt id="42">2.84689e-06</wgt>
  <wgt id="43">2.78808e-06</wgt>
  <wgt id="44">2.8337e-06</wgt>
  <wgt id="45">2.82184e-06</wgt>
  <wgt id="46">2.82434e-06</wgt>
  <wgt id="47">2.8258e-06</wgt>
  <wgt id="48">2.81413e-06</wgt>
  <wgt id="49">2.83398e-06</wgt>
  <wgt id="50">2.81645e-06</wgt>
  <wgt id="51">2.83794e-06</wgt>
  <wgt id="52">2.83486e-06</wgt>
  <wgt id="53">2.82267e-06</wgt>
</rwgt>
</event>
<event>
 11      0 +2.8251000e-06 1.26076600e+02 7.54677100e-03 1.14764300e-01
        2 -1    0    0  502    0 +0.00000000000e+00 +0.00000000000e+00 +1.82156385080e+03  1.82156385080e+03  0.00000000000e+00 0.0000e+00 -1.0000e+00
        2 -1    0    0  503    0 +0.00000000000e+00 +0.00000000000e+00 -1.08009033110e+02  1.08009033110e+02  0.00000000000e+00 0.0000e+00 -1.0000e+00
       24  2    1    2    0    0 +6.37585990381e+00 +6.09703543362e+01 +6.20255593948e+02  6.28636963142e+02  8.19108900395e+01 0.0000e+00 0.0000e+00
        2  1    3    3  504    0 +3.26405037301e+01 +6.73359000970e+01 +4.78766367455e+02  4.84578951804e+02  0.00000000000e+00 0.0000e+00 -1.0000e+00
       -1  1    3    3    0  504 -2.62646438263e+01 -6.36554576074e+00 +1.41489226494e+02  1.44058011339e+02  0.00000000000e+00 0.0000e+00 1.0000e+00
       24  2    1    2    0    0 -2.61425429060e+01 -2.71918306566e+01 -3.04180840406e+01  9.48393900564e+01  8.15255902495e+01 0.0000e+00 0.0000e+00
       16  1    6    6    0    0 -2.78815647160e+01 -5.01641392071e+01 -9.04794107097e-01  5.73989648493e+01  0.00000000000e+00 0.0000e+00 -1.0000e+00
      -15  1    6    6    0    0 +1.73902181002e+00 +2.29723085505e+01 -2.95132899335e+01  3.74404252071e+01  1.77700000000e+00 0.0000e+00 1.0000e+00
       21  1    1    2  503  501 -3.79002237197e+01 +3.40271536429e+01 +8.33644022197e+01  9.76928743589e+01  0.00000000000e+00 0.0000e+00 -1.0000e+00
        1  1    1    2  501    0 +7.03019089643e+00 +1.11454965812e+02 +7.81809189658e+02  7.89745048748e+02  0.00000000000e+00 0.0000e+00 -1.0000e+00
        1  1    1    2  502    0 +5.06367158255e+01 -1.79260643135e+02 +2.58543715905e+02  3.18658607605e+02  0.00000000000e+00 0.0000e+00 -1.0000e+00
#  0.1300000e+05  0.1300000e+05  0.5107525e+02  0.1300000e+05  0.1300000e+05
<mgrwt>
<rscale>  2 0.12402860e+03</rscale>
<asrwt>  1 0.51075249e+02</asrwt>
<pdfrwt beam="1">  1        2 0.28024059e+00 0.10201118e+03</pdfrwt>
<pdfrwt beam="2">  2        2        2 0.16616774e-01 0.14682894e-01 0.51075249e+02 0.12607660e+03</pdfrwt>
<totfact> 0.97670048e-01</totfact>
</mgrwt>
<clustering>
<clus scale="   51.075">  2  5  1 -1</clus>
<clus scale="   95.543">  2  4  1 -1</clus>
<clus scale="  102.011">  1  3  2 -1</clus>
<clus scale="  155.819">  1  6  2 -1</clus>
<clus scale="  155.819">  1  3  2 -1</clus>
</clustering>
<rwgt>
  <wgt id="1">4.79233e-06</wgt>
  <wgt id="2">3.03599e-06</wgt>
  <wgt id="3">2.1002e-06</wgt>
  <wgt id="4">4.45944e-06</wgt>
  <wgt id="5">2.8251e-06</wgt>
  <wgt id="6">1.95432e-06</wgt>
  <wgt id="7">4.14128e-06</wgt>
  <wgt id="8">2.62354e-06</wgt>
  <wgt id="9">1.81488e-06</wgt>
  <wgt id="10">3.70112e-06</wgt>
  <wgt id="11">2.8251e-06</wgt>
  <wgt id="12">2.28965e-06</wgt>
  <wgt id="13">2.8251e-06</wgt>
  <wgt id="14">2.82892e-06</wgt>
  <wgt id="15">2.82196e-06</wgt>
  <wgt id="16">2.82197e-06</wgt>
  <wgt id="17">2.82846e-06</wgt>
  <wgt id="18">2.81415e-06</wgt>
  <wgt id="19">2.84144e-06</wgt>
  <wgt id="20">2.82265e-06</wgt>
  <wgt id="21">2.82679e-06</wgt>
  <wgt id="22">2.83105e-06</wgt>
  <wgt id="23">2.81669e-06</wgt>
  <wgt id="24">2.85716e-06</wgt>
  <wgt id="25">2.80531e-06</wgt>
  <wgt id="26">2.8264e-06</wgt>
  <wgt id="27">2.8234e-06</wgt>
  <wgt id="28">2.84932e-06</wgt>
  <wgt id="29">2.81623e-06</wgt>
  <wgt id="30">2.83593e-06</wgt>
  <wgt id="31">2.81031e-06</wgt>
  <wgt id="32">2.8262e-06</wgt>
  <wgt id="33">2.82397e-06</wgt>
  <wgt id="34">2.78989e-06</wgt>
  <wgt id="35">2.88887e-06</wgt>
  <wgt id="36">2.82919e-06</wgt>
  <wgt id="37">2.82297e-06</wgt>
  <wgt id="38">2.82088e-06</wgt>
  <wgt id="39">2.82753e-06</wgt>
  <wgt id="40">2.83055e-06</wgt>
  <wgt id="41">2.82043e-06</wgt>
  <wgt id="42">2.84058e-06</wgt>
  <wgt id="43">2.79562e-06</wgt>
  <wgt id="44">2.83067e-06</wgt>
  <wgt id="45">2.82306e-06</wgt>
  <wgt id="46">2.8195e-06</wgt>
  <wgt id="47">2.8288e-06</wgt>
  <wgt id="48">2.81438e-06</wgt>
  <wgt id="49">2.83303e-06</wgt>
  <wgt id="50">2.81399e-06</wgt>
  <wgt id="51">2.82971e-06</wgt>
  <wgt id="52">2.83217e-06</wgt>
  <wgt id="53">2.82339e-06</wgt>
</rwgt>
</event>
<event>
 11      0 +2.8251000e-06 2.23130600e+03 7.54677100e-03 8.73769900e-02
       21 -1    0    0  502  503 +0.00000000000e+00 +0.00000000000e+00 +7.41972809090e+02  7.41972809090e+02  0.00000000000e+00 0.0000e+00 1.0000e+00
        2 -1    0    0  503    0 +0.00000000000e+00 +0.00000000000e+00 -3.84570377380e+03  3.84570377380e+03  0.00000000000e+00 0.0000e+00 -1.0000e+00
       24  2    1    2    0    0 -7.76582202301e+01 -2.95382894975e+01 -4.47682850052e+02  4.62684235956e+02  8.21794272089e+01 0.0000e+00 0.0000e+00
        2  1    3    3  504    0 -7.54854932801e+01 -5.20703852734e+01 -3.91282513239e+02  4.01884796783e+02  0.00000000000e+00 0.0000e+00 -1.0000e+00
       -1  1    3    3    0  504 -2.17272694996e+00 +2.25320957759e+01 -5.64003368125e+01  6.07994391737e+01  0.00000000000e+00 0.0000e+00 1.0000e+00
       24  2    1    2    0    0 -9.54650448905e+01 -7.25361100946e+02 -8.80675095618e+02  1.14774911012e+03  8.04803962374e+01 0.0000e+00 0.0000e+00
       16  1    6    6    0    0 +1.14655899072e+01 -7.37886209523e+01 -7.17841481098e+01  1.03581775684e+02  0.00000000000e+00 0.0000e+00 -1.0000e+00
      -15  1    6    6    0    0 -1.06930634798e+02 -6.51572479993e+02 -8.08890947509e+02  1.04416733444e+03  1.77700000000e+00 0.0000e+00 1.0000e+00
        1  1    1    2  501    0 +2.19221760242e+02 -8.31439508542e+01 -1.85282605283e+02  2.98832295021e+02  0.00000000000e+00 0.0000e+00 -1.0000e+00
        1  1    1    2  502    0 +6.22583302206e+01 +1.49132543219e+03 -1.07441302984e+03  1.83910059623e+03  0.00000000000e+00 0.0000e+00 -1.0000e+00
       -2  1    1    2    0  501 -1.08356825342e+02 -6.53282090892e+02 -5.15677383921e+02  8.39310345561e+02  0.00000000000e+00 0.0000e+00 1.0000e+00
#  0.1300000e+05  0.1300000e+05  0.1300000e+05  0.1300000e+05  0.1300000e+05
<mgrwt>
<rscale>  3 0.10666258e+04</rscale>
<asrwt>0</asrwt>
<pdfrwt beam="1">  1       21 0.11414966e+00 0.22313057e+04</pdfrwt>
<pdfrwt beam="2">  1        2 0.59164673e+00 0.11651212e+03</pdfrwt>
<totfact> 0.24928436e-03</totfact>
</mgrwt>
<clustering>
<clus scale="  116.512">  2  3  1 -1</clus>
<clus scale="  230.023">  2  5  1 -1</clus>
<clus scale="  682.181">  2  7  1 -1</clus>
<clus scale=" 1043.128">  4  6 -1 -1</clus>
<clus scale=" 2231.306">  1  3  2 -1</clus>
</clustering>
<rwgt>
  <wgt id="1">7.22774e-06</wgt>
  <wgt id="2">4.38522e-06</wgt>
  <wgt id="3">2.86371e-06</wgt>
  <wgt id="4">4.65634e-06</wgt>
  <wgt id="5">2.8251e-06</wgt>
  <wgt id="6">1.84489e-06</wgt>
  <wgt id="7">3.22025e-06</wgt>
  <wgt id="8">1.95379e-06</wgt>
  <wgt id="9">1.2759e-06</wgt>
  <wgt id="10">2.8251e-06</wgt>
  <wgt id="11">2.8251e-06</wgt>
  <wgt id="12">2.8251e-06</wgt>
  <wgt id="13">2.8251e-06</wgt>
  <wgt id="14">2.83263e-06</wgt>
  <wgt id="15">2.81887e-06</wgt>
  <wgt id="16">2.80465e-06</wgt>
  <wgt id="17">2.84798e-06</wgt>
  <wgt id="18">2.81332e-06</wgt>
  <wgt id="19">2.84255e-06</wgt>
  <wgt id="20">2.82162e-06</wgt>
  <wgt id="21">2.82738e-06</wgt>
  <wgt id="22">2.83089e-06</wgt>
  <wgt id="23">2.8168e-06</wgt>
  <wgt id="24">2.85585e-06</wgt>
  <wgt id="25">2.80618e-06</wgt>
  <wgt id="26">2.82314e-06</wgt>
  <wgt id="27">2.82777e-06</wgt>
  <wgt id="28">2.8073e-06</wgt>
  <wgt id="29">2.83105e-06</wgt>
  <wgt id="30">2.79283e-06</wgt>
  <wgt id="31">2.86587e-06</wgt>
  <wgt id="32">2.81319e-06</wgt>
  <wgt id="33">2.83638e-06</wgt>
  <wgt id="34">2.84163e-06</wgt>
  <wgt id="35">2.79971e-06</wgt>
  <wgt id="36">2.82139e-06</wgt>
  <wgt id="37">2.82843e-06</wgt>
  <wgt id="38">2.80364e-06</wgt>
  <wgt id="39">2.83571e-06</wgt>
  <wgt id="40">2.84172e-06</wgt>
  <wgt id="41">2.80777e-06</wgt>
  <wgt id="42">2.8234e-06</wgt>
  <wgt id="43">2.82949e-06</wgt>
  <wgt id="44">2.82624e-06</wgt>
  <wgt id="45">2.82466e-06</wgt>
  <wgt id="46">2.8281e-06</wgt>
  <wgt id="47">2.82326e-06</wgt>
  <wgt id="48">2.83712e-06</wgt>
  <wgt id="49">2.82655e-06</wgt>
  <wgt id="50">2.81227e-06</wgt>
  <wgt id="51">2.85999e-06</wgt>
  <wgt id="52">2.83116e-06</wgt>
  <wgt id="53">2.82407e-06</wgt>
</rwgt>
</event>
<event>
 10      0 +2.8251000e-06 2.00479000e+02 7.54677100e-03 1.10119600e-01
        2 -1    0    0  502    0 +0.00000000000e+00 +0.00000000000e+00 +4.03029319620e+02  4.03029319620e+02  0.00000000000e+00 0.0000e+00 -1.0000e+00
        2 -1    0    0  501    0 +0.00000000000e+00 +0.00000000000e+00 -1.65103885030e+02  1.65103885030e+02  0.00000000000e+00 0.0000e+00 -1.0000e+00
       24  2    1    2    0    0 -1.16304507015e+02 -3.03408122912e+01 -4.77734326929e+01  1.52509765876e+02  8.08060924308e+01 0.0000e+00 0.0000e+00
       16  1    3    3    0    0 -1.26272867955e+02 -3.67575781393e+01 -4.95169235945e+01  1.40527159135e+02  0.00000000000e+00 0.0000e+00 -1.0000e+00
      -15  1    3    3    0    0 +9.96836094051e+00 +6.41676584810e+00 +1.74349090162e+00  1.19826067412e+01  1.77700000000e+00 0.0000e+00 1.0000e+00
       24  2    1    2    0    0 +4.50447775435e+01 -1.09201217298e+01 +2.00727417740e+02  2.21225091630e+02  8.06273147979e+01 0.0000e+00 0.0000e+00
        2  1    6    6  503    0 +5.05852274739e+01 +2.45910534768e+01 +1.08186654106e+02  1.21934151394e+02  0.00000000000e+00 0.0000e+00 -1.0000e+00
       -1  1    6    6    0  503 -5.54044993041e+00 -3.55111752067e+01 +9.25407636346e+01  9.92909402357e+01  0.00000000000e+00 0.0000e+00 1.0000e+00
        1  1    1    2  501    0 +8.57711602281e+01 +8.94284737079e+01 +5.28497648907e+01  1.34711697657e+02  0.00000000000e+00 0.0000e+00 -1.0000e+00
        1  1    1    2  502    0 -1.45114307568e+01 -4.81675396869e+01 +3.21216846521e+01  5.96866494870e+01  0.00000000000e+00 0.0000e+00 -1.0000e+00
#  0.1300000e+05  0.1300000e+05  0.1300000e+05  0.1300000e+05
<mgrwt>
<rscale>  2 0.16541020e+03</rscale>
<asrwt>0</asrwt>
<pdfrwt beam="1">  1        2 0.62004511e-01 0.92905779e+02</pdfrwt>
<pdfrwt beam="2">  1        2 0.25400598e-01 0.20047896e+03</pdfrwt>
<totfact> 0.31259311e+01</totfact>
</mgrwt>
<clustering>
<clus scale="   50.508">  3  6 -1 -1</clus>
<clus scale="   92.906">  1  4  2 -1</clus>
<clus scale="  136.696">  1  5  2 -1</clus>
<clus scale="  200.479">  1  3  2 -1</clus>
</clustering>
<rwgt>
  <wgt id="1">4.19344e-06</wgt>
  <wgt id="2">2.71452e-06</wgt>
  <wgt id="3">1.90469e-06</wgt>
  <wgt id="4">4.36426e-06</wgt>
  <wgt id="5">2.8251e-06</wgt>
  <wgt id="6">1.98228e-06</wgt>
  <wgt id="7">4.42762e-06</wgt>
  <wgt id="8">2.86611e-06</wgt>
  <wgt id="9">2.01106e-06</wgt>
  <wgt id="10">2.8251e-06</wgt>
  <wgt id="11">2.8251e-06</wgt>
  <wgt id="12">2.8251e-06</wgt>
  <wgt id="13">2.8251e-06</wgt>
  <wgt id="14">2.82871e-06</wgt>
  <wgt id="15">2.82208e-06</wgt>
  <wgt id="16">2.83467e-06</wgt>
  <wgt id="17">2.81425e-06</wgt>
  <wgt id="18">2.81533e-06</wgt>
  <wgt id="19">2.83954e-06</wgt>
  <wgt id="20">2.81605e-06</wgt>
  <wgt id="21">2.83116e-06</wgt>
  <wgt id="22">2.82939e-06</wgt>
  <wgt id="23">2.81895e-06</wgt>
  <wgt id="24">2.85e-06</wgt>
  <wgt id="25">2.80969e-06</wgt>
  <wgt id="26">2.82369e-06</wgt>
  <wgt id="27">2.82706e-06</wgt>
  <wgt id="28">2.84585e-06</wgt>
  <wgt id="29">2.81741e-06</wgt>
  <wgt id="30">2.83255e-06</wgt>
  <wgt id="31">2.81491e-06</wgt>
  <wgt id="32">2.831e-06</wgt>
  <wgt id="33">2.81943e-06</wgt>
  <wgt id="34">2.79931e-06</wgt>
  <wgt id="35">2.87141e-06</wgt>
  <wgt id="36">2.82327e-06</wgt>
  <wgt id="37">2.82737e-06</wgt>
  <wgt id="38">2.82078e-06</wgt>
  <wgt id="39">2.827e-06</wgt>
  <wgt id="40">2.82573e-06</wgt>
  <wgt id="41">2.82509e-06</wgt>
  <wgt id="42">2.83998e-06</wgt>
  <wgt id="43">2.79216e-06</wgt>
  <wgt id="44">2.83562e-06</wgt>
  <wgt id="45">2.82088e-06</wgt>
  <wgt id="46">2.82308e-06</wgt>
  <wgt id="47">2.82704e-06</wgt>
  <wgt id="48">2.78455e-06</wgt>
  <wgt id="49">2.84374e-06</wgt>
  <wgt id="50">2.81246e-06</wgt>
  <wgt id="51">2.83315e-06</wgt>
  <wgt id="52">2.81935e-06</wgt>
  <wgt id="53">2.82628e-06</wgt>
</rwgt>
</event>
<event>
 10      0 +2.8251000e-06 8.60456200e+02 7.54677100e-03 9.48259000e-02
        2 -1    0    0  502    0 +0.00000000000e+00 +0.00000000000e+00 +3.15151258270e+03  3.15151258270e+03  0.00000000000e+00 0.0000e+00 -1.0000e+00
        2 -1    0    0  501    0 +0.00000000000e+00 +0.00000000000e+00 -1.09571671370e+03  1.09571671370e+03  0.00000000000e+00 0.0000e+00 -1.0000e+00
       24  2    1    2    0    0 +7.51239004885e+01 -4.36537658635e+01 -1.22506089384e+02  1.70324249646e+02  8.03327852303e+01 0.0000e+00 0.0000e+00
       12  1    3    3    0    0 +8.88483962294e+00 -4.42179598166e+01 -2.25856238309e+01  5.04408440581e+01  0.00000000000e+00 0.0000e+00 -1.0000e+00
      -11  1    3    3    0    0 +6.62390608656e+01 +5.64193953056e-01 -9.99204655527e+01  1.19883405588e+02  0.00000000000e+00 0.0000e+00 1.0000e+00
       24  2    1    2    0    0 +5.81450919670e+02 +5.89732157629e+02 +2.45959933487e+03  2.59650364401e+03  7.95807485300e+01 0.0000e+00 0.0000e+00
        2  1    6    6  503    0 +4.35919101816e+02 +4.22922418313e+02 +1.69650278631e+03  1.80194631973e+03  0.00000000000e+00 0.0000e+00 -1.0000e+00
       -1  1    6    6    0  503 +1.45531817854e+02 +1.66809739316e+02 +7.63096548562e+02  7.94557324279e+02  0.00000000000e+00 0.0000e+00 1.0000e+00
        1  1    1    2  501    0 -9.03816756285e+02 -6.35880742802e+02 -1.37156367755e+01  1.10517743675e+03  0.00000000000e+00 0.0000e+00 -1.0000e+00
        1  1    1    2  502    0 +2.47241936126e+02 +8.98023510370e+01 -2.67581739710e+02  3.75223965996e+02  0.00000000000e+00 0.0000e+00 -1.0000e+00
#  0.1300000e+05  0.1300000e+05  0.1300000e+05  0.1300000e+05
<mgrwt>
<rscale>  2 0.52399829e+03</rscale>
<asrwt>0</asrwt>
<pdfrwt beam="1">  1        2 0.48484809e+00 0.86045619e+03</pdfrwt>
<pdfrwt beam="2">  1        2 0.16857180e+00 0.11834044e+03</pdfrwt>
<totfact> 0.48283125e-02</totfact>
</mgrwt>
<clustering>
<clus scale="  118.340">  2  3  1 -1</clus>
<clus scale="  282.809">  2  6  1 -1</clus>
<clus scale="  856.690">  2  5  1 -1</clus>
<clus scale="  860.456">  1  3  2 -1</clus>
</clustering>
<rwgt>
  <wgt id="1">5.36998e-06</wgt>
  <wgt id="2">3.72541e-06</wgt>
  <wgt id="3">2.7399e-06</wgt>
  <wgt id="4">4.07223e-06</wgt>
  <wgt id="5">2.8251e-06</wgt>
  <wgt id="6">2.07775e-06</wgt>
  <wgt id="7">3.20361e-06</wgt>
  <wgt id="8">2.2225e-06</wgt>
  <wgt id="9">1.63456e-06</wgt>
  <wgt id="10">2.8251e-06</wgt>
  <wgt id="11">2.8251e-06</wgt>
  <wgt id="12">2.8251e-06</wgt>
  <wgt id="13">2.8251e-06</wgt>
  <wgt id="14">2.82848e-06</wgt>
  <wgt id="15">2.82229e-06</wgt>
  <wgt id="16">2.8015e-06</wgt>
  <wgt id="17">2.8516e-06</wgt>
  <wgt id="18">2.80844e-06</wgt>
  <wgt id="19">2.84993e-06</wgt>
  <wgt id="20">2.81651e-06</wgt>
  <wgt id="21">2.8309e-06</wgt>
  <wgt id="22">2.83515e-06</wgt>
  <wgt id="23">2.81086e-06</wgt>
  <wgt id="24">2.87966e-06</wgt>
  <wgt id="25">2.7917e-06</wgt>
  <wgt id="26">2.82504e-06</wgt>
  <wgt id="27">2.82517e-06</wgt>
  <wgt id="28">2.85058e-06</wgt>
  <wgt id="29">2.81554e-06</wgt>
  <wgt id="30">2.82735e-06</wgt>
  <wgt id="31">2.82226e-06</wgt>
  <wgt id="32">2.81586e-06</wgt>
  <wgt id="33">2.83398e-06</wgt>
  <wgt id="34">2.78273e-06</wgt>
  <wgt id="35">2.90334e-06</wgt>
  <wgt id="36">2.85562e-06</wgt>
  <wgt id="37">2.80778e-06</wgt>
  <wgt id="38">2.81263e-06</wgt>
  <wgt id="39">2.83165e-06</wgt>
  <wgt id="40">2.84341e-06</wgt>
  <wgt id="41">2.80687e-06</wgt>
  <wgt id="42">2.8478e-06</wgt>
  <wgt id="43">2.78943e-06</wgt>
  <wgt id="44">2.83454e-06</wgt>
  <wgt id="45">2.82153e-06</wgt>
  <wgt id="46">2.82451e-06</wgt>
  <wgt id="47">2.82548e-06</wgt>
  <wgt id="48">2.83062e-06</wgt>
  <wgt id="49">2.83021e-06</wgt>
  <wgt id="50">2.81547e-06</wgt>
  <wgt id="51">2.84039e-06</wgt>
  <wgt id="52">2.84026e-06</wgt>
  <wgt id="53">2.82164e-06</wgt>
</rwgt>
</event>
<event>
 10      0 +2.8251000e-06 7.17702600e+02 7.54677100e-03 9.39762000e-02
        2 -1    0    0  501    0 +0.00000000000e+00 +0.00000000000e+00 +3.39406481660e+03  3.39406481660e+03  0.00000000000e+00 0.0000e+00 -1.0000e+00
        2 -1    0    0  502    0 +0.00000000000e+00 +0.00000000000e+00 -7.18740655040e+02  7.18740655040e+02  0.00000000000e+00 0.0000e+00 -1.0000e+00
       24  2    1    2    0    0 +4.38149045722e+02 +9.85453307934e+01 +2.20486550287e+02  5.06811144838e+02  8.09780784318e+01 0.0000e+00 0.0000e+00
       12  1    3    3    0    0 +1.08239539000e+02 +3.83466164541e+01 +9.39813779924e+01  1.48387196906e+02  0.00000000000e+00 0.0000e+00 -1.0000e+00
      -11  1    3    3    0    0 +3.29909506723e+02 +6.01987143394e+01 +1.26505172294e+02  3.58423947932e+02  0.00000000000e+00 0.0000e+00 1.0000e+00
       24  2    1    2    0    0 -1.34546113780e+02 +6.57886709409e+01 +5.17955283847e+02  5.45007641013e+02  7.95289050562e+01 0.0000e+00 0.0000e+00
        2  1    6    6  503    0 -4.03810644913e+01 +6.12060856145e+01 +2.68471425864e+02  2.78305087613e+02  0.00000000000e+00 0.0000e+00 -1.0000e+00
       -1  1    6    6    0  503 -9.41650492885e+01 +4.58258532632e+00 +2.49483857983e+02  2.66702553399e+02  0.00000000000e+00 0.0000e+00 1.0000e+00
        1  1    1    2  501    0 -1.24356129992e+03 +3.46978604274e+02 +1.19230088657e+03  1.75739018508e+03  0.00000000000e+00 0.0000e+00 -1.0000e+00
        1  1    1    2  502    0 +9.39958367981e+02 -5.11312606008e+02 +7.44581440860e+02  1.30359650071e+03  0.00000000000e+00 0.0000e+00 -1.0000e+00
#  0.1300000e+05  0.1300000e+05  0.1300000e+05  0.1300000e+05
<mgrwt>
<rscale>  2 0.56495267e+03</rscale>
<asrwt>0</asrwt>
<pdfrwt beam="1">  1        2 0.52216382e+00 0.16964064e+03</pdfrwt>
<pdfrwt beam="2">  1        2 0.11057549e+00 0.44183450e+03</pdfrwt>
<totfact> 0.68534849e-02</totfact>
</mgrwt>
<clustering>
<clus scale="  169.641">  1  4  2 -1</clus>
<clus scale="  441.834">  2  3  1 -1</clus>
<clus scale=" 1165.814">  1  6  2 -1</clus>
<clus scale=" 1165.814">  1  3  2 -1</clus>
</clustering>
<rwgt>
  <wgt id="1">5.47639e-06</wgt>
  <wgt id="2">3.81362e-06</wgt>
  <wgt id="3">2.81221e-06</wgt>
  <wgt id="4">4.05687e-06</wgt>
  <wgt id="5">2.8251e-06</wgt>
  <wgt id="6">2.08326e-06</wgt>
  <wgt id="7">3.14787e-06</wgt>
  <wgt id="8">2.1921e-06</wgt>
  <wgt id="9">1.61648e-06</wgt>
  <wgt id="10">2.8251e-06</wgt>
  <wgt id="11">2.8251e-06</wgt>
  <wgt id="12">2.8251e-06</wgt>
  <wgt id="13">2.8251e-06</wgt>
  <wgt id="14">2.82852e-06</wgt>
  <wgt id="15">2.8223e-06</wgt>
  <wgt id="16">2.80463e-06</wgt>
  <wgt id="17">2.84808e-06</wgt>
  <wgt id="18">2.80864e-06</wgt>
  <wgt id="19">2.84961e-06</wgt>
  <wgt id="20">2.81451e-06</wgt>
  <wgt id="21">2.83223e-06</wgt>
  <wgt id="22">2.8347e-06</wgt>
  <wgt id="23">2.81149e-06</wgt>
  <wgt id="24">2.87772e-06</wgt>
  <wgt id="25">2.79287e-06</wgt>
  <wgt id="26">2.82431e-06</wgt>
  <wgt id="27">2.82625e-06</wgt>
  <wgt id="28">2.84291e-06</wgt>
  <wgt id="29">2.81825e-06</wgt>
  <wgt id="30">2.82583e-06</wgt>
  <wgt id="31">2.82414e-06</wgt>
  <wgt id="32">2.81514e-06</wgt>
  <wgt id="33">2.83468e-06</wgt>
  <wgt id="34">2.78613e-06</wgt>
  <wgt id="35">2.89695e-06</wgt>
  <wgt id="36">2.85617e-06</wgt>
  <wgt id="37">2.80794e-06</wgt>
  <wgt id="38">2.81298e-06</wgt>
  <wgt id="39">2.83136e-06</wgt>
  <wgt id="40">2.84479e-06</wgt>
  <wgt id="41">2.80555e-06</wgt>
  <wgt id="42">2.84615e-06</wgt>
  <wgt id="43">2.79083e-06</wgt>
  <wgt id="44">2.83649e-06</wgt>
  <wgt id="45">2.82067e-06</wgt>
  <wgt id="46">2.82586e-06</wgt>
  <wgt id="47">2.82481e-06</wgt>
  <wgt id="48">2.82247e-06</wgt>
  <wgt id="49">2.83346e-06</wgt>
  <wgt id="50">2.81344e-06</wgt>
  <wgt id="51">2.84255e-06</wgt>
  <wgt id="52">2.83555e-06</wgt>
  <wgt id="53">2.82283e-06</wgt>
</rwgt>
</event>
<event>
 10      0 +2.8251000e-06 3.55884500e+02 7.54677100e-03 1.00189900e-01
        2 -1    0    0  502    0 +0.00000000000e+00 +0.00000000000e+00 +1.28684128210e+03  1.28684128210e+03  0.00000000000e+00 0.0000e+00 -1.0000e+00
        2 -1    0    0  501    0 +0.00000000000e+00 +0.00000000000e+00 -6.52738930500e+02  6.52738930500e+02  0.00000000000e+00 0.0000e+00 -1.0000e+00
       24  2    1    2    0    0 -1.01413614597e+02 -1.52551553948e+02 +2.44718313503e+02  3.16002272796e+02  8.00854893875e+01 0.0000e+00 0.0000e+00
       14  1    3    3    0    0 -1.22713056616e+01 +3.47529829121e-01 -1.92671075534e+00  1.24265012758e+01  0.00000000000e+00 0.0000e+00 -1.0000e+00
      -13  1    3    3    0    0 -8.91423089351e+01 -1.52899083777e+02 +2.46645024259e+02  3.03575771520e+02  0.00000000000e+00 0.0000e+00 1.0000e+00
       24  2    1    2    0    0 -2.26170170594e+01 -2.31836909917e+02 -2.41260936522e+02  3.49146036423e+02  9.71402748500e+01 0.0000e+00 0.0000e+00
        2  1    6    6  503    0 -5.29031116107e+01 -2.02091039922e+02 -2.11704058766e+02  2.97419125365e+02  0.00000000000e+00 0.0000e+00 -1.0000e+00
       -1  1    6    6    0  503 +3.02860945513e+01 -2.97458699942e+01 -2.95568777564e+01  5.17269110579e+01  0.00000000000e+00 0.0000e+00 1.0000e+00
        1  1    1    2  501    0 -3.12360493573e+02 -1.75701767531e+02 +3.77763346032e+02  5.20716174767e+02  0.00000000000e+00 0.0000e+00 -1.0000e+00
        1  1    1    2  502    0 +4.36391125230e+02 +5.60090231396e+02 +2.52881628587e+02  7.53715728614e+02  0.00000000000e+00 0.0000e+00 -1.0000e+00
#  0.1300000e+05  0.1300000e+05  0.1300000e+05  0.1300000e+05
<mgrwt>
<rscale>  2 0.33566784e+03</rscale>
<asrwt>0</asrwt>
<pdfrwt beam="1">  1        2 0.19797558e+00 0.20000307e+03</pdfrwt>
<pdfrwt beam="2">  1        2 0.10042137e+00 0.25271690e+03</pdfrwt>
<totfact> 0.13364194e+00</totfact>
</mgrwt>
<clustering>
<clus scale="  200.003">  1  3  2 -1</clus>
<clus scale="  252.717">  2  4  1 -1</clus>
<clus scale="  501.169">  1  5  2 -1</clus>
<clus scale="  501.169">  1  3  2 -1</clus>
</clustering>
<rwgt>
  <wgt id="1">4.76287e-06</wgt>
  <wgt id="2">3.22613e-06</wgt>
  <wgt id="3">2.33374e-06</wgt>
  <wgt id="4">4.17081e-06</wgt>
  <wgt id="5">2.8251e-06</wgt>
  <wgt id="6">2.04364e-06</wgt>
  <wgt id="7">3.70176e-06</wgt>
  <wgt id="8">2.50739e-06</wgt>
  <wgt id="9">1.81381e-06</wgt>
  <wgt id="10">2.8251e-06</wgt>
  <wgt id="11">2.8251e-06</wgt>
  <wgt id="12">2.8251e-06</wgt>
  <wgt id="13">2.8251e-06</wgt>
  <wgt id="14">2.828e-06</wgt>
  <wgt id="15">2.82269e-06</wgt>
  <wgt id="16">2.81409e-06</wgt>
  <wgt id="17">2.83734e-06</wgt>
  <wgt id="18">2.81169e-06</wgt>
  <wgt id="19">2.84499e-06</wgt>
  <wgt id="20">2.81376e-06</wgt>
  <wgt id="21">2.83276e-06</wgt>
  <wgt id="22">2.83256e-06</wgt>
  <wgt id="23">2.81448e-06</wgt>
  <wgt id="24">2.86647e-06</wgt>
  <wgt id="25">2.7996e-06</wgt>
  <wgt id="26">2.82456e-06</wgt>
  <wgt id="27">2.8258e-06</wgt>
  <wgt id="28">2.87543e-06</wgt>
  <wgt id="29">2.80695e-06</wgt>
  <wgt id="30">2.83064e-06</wgt>
  <wgt id="31">2.81812e-06</wgt>
  <wgt id="32">2.82846e-06</wgt>
  <wgt id="33">2.82195e-06</wgt>
  <wgt id="34">2.78691e-06</wgt>
  <wgt id="35">2.89578e-06</wgt>
  <wgt id="36">2.84888e-06</wgt>
  <wgt id="37">2.81215e-06</wgt>
  <wgt id="38">2.81318e-06</wgt>
  <wgt id="39">2.83112e-06</wgt>
  <wgt id="40">2.82661e-06</wgt>
  <wgt id="41">2.82401e-06</wgt>
  <wgt id="42">2.84898e-06</wgt>
  <wgt id="43">2.78542e-06</wgt>
  <wgt id="44">2.83348e-06</wgt>
  <wgt id="45">2.82199e-06</wgt>
  <wgt id="46">2.82468e-06</wgt>
  <wgt id="47">2.82557e-06</wgt>
  <wgt id="48">2.81419e-06</wgt>
  <wgt id="49">2.83344e-06</wgt>
  <wgt id="50">2.8153e-06</wgt>
  <wgt id="51">2.83897e-06</wgt>
  <wgt id="52">2.83694e-06</wgt>
  <wgt id="53">2.82204e-06</wgt>
</rwgt>
</event>
<event>
 11      0 +2.8251000e-06 3.18868600e+02 7.54677100e-03 1.01751700e-01
        2 -1    0    0  503    0 +0.00000000000e+00 +0.00000000000e+00 +2.62316276170e+03  2.62316276170e+03  0.00000000000e+00 0.0000e+00 -1.0000e+00
        2 -1    0    0  501    0 +0.00000000000e+00 +0.00000000000e+00 -5.83488111780e+02  5.83488111780e+02  0.00000000000e+00 0.0000e+00 -1.0000e+00
       24  2    1    2    0    0 -1.25716617824e+02 -2.90135449366e+01 -1.37885524883e+02  2.05187436537e+02  8.02683770438e+01 0.0000e+00 0.0000e+00
       12  1    3    3    0    0 -7.49756457676e+01 +2.22247236359e+01 -8.66997870010e+01  1.16756750833e+02  0.00000000000e+00 0.0000e+00 -1.0000e+00
      -11  1    3    3    0    0 -5.07409720563e+01 -5.12382685725e+01 -5.11857378823e+01  8.84306857041e+01  0.00000000000e+00 0.0000e+00 1.0000e+00
       24  2    1    2    0    0 +8.96165673042e+01 +1.09292857342e+02 +1.39207018028e+03  1.40158101831e+03  8.12028709329e+01 0.0000e+00 0.0000e+00
       14  1    6    6    0    0 +5.28180826237e+01 +1.08160596429e+02 +1.19941462552e+03  1.20543930100e+03  0.00000000000e+00 0.0000e+00 -1.0000e+00
      -13  1    6    6    0    0 +3.67984846806e+01 +1.13226091231e+00 +1.92655554757e+02  1.96141717308e+02  0.00000000000e+00 0.0000e+00 1.0000e+00
       21  1    1    2  503  502 +1.10735526511e+01 +8.97188705243e+01 +1.25293469737e+02  1.54500980111e+02  0.00000000000e+00 0.0000e+00 1.0000e+00
        1  1    1    2  501    0 +4.49199242517e+02 -9.34967607599e+01 +8.56586738041e+02  9.71731672602e+02  0.00000000000e+00 0.0000e+00 -1.0000e+00
        1  1    1    2  502    0 -4.24172744648e+02 -7.65014221695e+01 -1.96390213257e+02  4.73649765923e+02  0.00000000000e+00 0.0000e+00 -1.0000e+00
#  0.1300000e+05  0.1300000e+05  0.9034158e+02  0.1300000e+05  0.1300000e+05
<mgrwt>
<rscale>  2 0.29753136e+03</rscale>
<asrwt>  1 0.90341579e+02</asrwt>
<pdfrwt beam="1">  2        2        2 0.40356350e+00 0.37196373e+00 0.90341579e+02 0.31886862e+03</pdfrwt>
<pdfrwt beam="2">  1        2 0.89767402e-01 0.15162448e+03</pdfrwt>
<totfact> 0.38245855e-02</totfact>
</mgrwt>
<clustering>
<clus scale="   90.342">  1  5  2 -1</clus>
<clus scale="  151.624">  2  3  1 -1</clus>
<clus scale="  200.026">  1  4  2 -1</clus>
<clus scale="  508.321">  1  6  2 -1</clus>
<clus scale="  508.321">  1  3  2 -1</clus>
</clustering>
<rwgt>
  <wgt id="1">5.1339e-06</wgt>
  <wgt id="2">3.45316e-06</wgt>
  <wgt id="3">2.48597e-06</wgt>
  <wgt id="4">4.20015e-06</wgt>
  <wgt id="5">2.8251e-06</wgt>
  <wgt id="6">2.03382e-06</wgt>
  <wgt id="7">3.52554e-06</wgt>
  <wgt id="8">2.37134e-06</wgt>
  <wgt id="9">1.70715e-06</wgt>
  <wgt id="10">3.59715e-06</wgt>
  <wgt id="11">2.8251e-06</wgt>
  <wgt id="12">2.32997e-06</wgt>
  <wgt id="13">2.8251e-06</wgt>
  <wgt id="14">2.82839e-06</wgt>
  <wgt id="15">2.82245e-06</wgt>
  <wgt id="16">2.80915e-06</wgt>
  <wgt id="17">2.84318e-06</wgt>
  <wgt id="18">2.80994e-06</wgt>
  <wgt id="19">2.84768e-06</wgt>
  <wgt id="20">2.81539e-06</wgt>
  <wgt id="21">2.83177e-06</wgt>
  <wgt id="22">2.834e-06</wgt>
  <wgt id="23">2.81278e-06</wgt>
  <wgt id="24">2.87323e-06</wgt>
  <wgt id="25">2.79571e-06</wgt>
  <wgt id="26">2.82478e-06</wgt>
  <wgt id="27">2.8259e-06</wgt>
  <wgt id="28">2.85826e-06</wgt>
  <wgt id="29">2.81304e-06</wgt>
  <wgt id="30">2.82853e-06</wgt>
  <wgt id="31">2.82074e-06</wgt>
  <wgt id="32">2.82144e-06</wgt>
  <wgt id="33">2.82888e-06</wgt>
  <wgt id="34">2.78465e-06</wgt>
  <wgt id="35">2.90021e-06</wgt>
  <wgt id="36">2.8444e-06</wgt>
  <wgt id="37">2.8162e-06</wgt>
  <wgt id="38">2.81551e-06</wgt>
  <wgt id="39">2.83045e-06</wgt>
  <wgt id="40">2.83719e-06</wgt>
  <wgt id="41">2.81341e-06</wgt>
  <wgt id="42">2.8473e-06</wgt>
  <wgt id="43">2.78859e-06</wgt>
  <wgt id="44">2.83608e-06</wgt>
  <wgt id="45">2.82087e-06</wgt>
  <wgt id="46">2.8251e-06</wgt>
  <wgt id="47">2.82551e-06</wgt>
  <wgt id="48">2.82151e-06</wgt>
  <wgt id="49">2.83221e-06</wgt>
  <wgt id="50">2.81611e-06</wgt>
  <wgt id="51">2.83911e-06</wgt>
  <wgt id="52">2.83671e-06</wgt>
  <wgt id="53">2.82242e-06</wgt>
</rwgt>
</event>
<event>
 10      0 +2.8251000e-06 1.63472500e+02 7.54677100e-03 1.11624900e-01
        2 -1    0    0  501    0 +0.00000000000e+00 +0.00000000000e+00 +9.86471167330e+02  9.86471167330e+02  0.00000000000e+00 0.0000e+00 -1.0000e+00
        2 -1    0    0  502    0 +0.00000000000e+00 +0.00000000000e+00 -1.46665714200e+02  1.46665714200e+02  0.00000000000e+00 0.0000e+00 -1.0000e+00
       24  2    1    2    0    0 +3.03839999819e+01 +9.70356940378e+01 +1.55532701116e+02  2.02544114673e+02  8.05889812556e+01 0.0000e+00 0.0000e+00
        2  1    3    3  503    0 +6.40690656195e+00 +5.92179930010e+00 -9.25304180577e+00  1.27175053098e+01  0.00000000000e+00 0.0000e+00 -1.0000e+00
       -1  1    3    3    0  503 +2.39770934199e+01 +9.11138947377e+01 +1.64785742922e+02  1.89826609363e+02  0.00000000000e+00 0.0000e+00 1.0000e+00
       24  2    1    2    0    0 +4.63851611293e+01 -1.03569152615e+01 +2.53375597654e+02  2.69857057870e+02  7.97796297894e+01 0.0000e+00 0.0000e+00
       16  1    6    6    0    0 +3.84821703551e+01 +3.10611326593e+01 +1.58445740112e+02  1.65984107543e+02  0.00000000000e+00 0.0000e+00 -1.0000e+00
      -15  1    6    6    0    0 +7.90299077421e+00 -4.14180479208e+01 +9.49298575420e+01  1.03872950327e+02  1.77700000000e+00 0.0000e+00 1.0000e+00
        1  1    1    2  501    0 -2.35148448876e+02 -1.39912760103e+02 +1.02346084336e+02  2.92138827320e+02  0.00000000000e+00 0.0000e+00 -1.0000e+00
        1  1    1    2  502    0 +1.58379287765e+02 +5.32339813272e+01 +3.28551070024e+02  3.68596881667e+02  0.00000000000e+00 0.0000e+00 -1.0000e+00
#  0.1300000e+05  0.1300000e+05  0.1300000e+05  0.1300000e+05
<mgrwt>
<rscale>  2 0.15024202e+03</rscale>
<asrwt>0</asrwt>
<pdfrwt beam="1">  1        2 0.15176479e+00 0.93328009e+02</pdfrwt>
<pdfrwt beam="2">  1        2 0.22563956e-01 0.13080516e+03</pdfrwt>
<totfact> 0.13108873e+01</totfact>
</mgrwt>
<clustering>
<clus scale="   93.328">  1  4  2 -1</clus>
<clus scale="  130.805">  2  3  1 -1</clus>
<clus scale="  204.298">  1  6  2 -1</clus>
<clus scale="  204.298">  1  3  2 -1</clus>
</clustering>
<rwgt>
  <wgt id="1">4.47826e-06</wgt>
  <wgt id="2">2.87836e-06</wgt>
  <wgt id="3">2.01043e-06</wgt>
  <wgt id="4">4.3954e-06</wgt>
  <wgt id="5">2.8251e-06</wgt>
  <wgt id="6">1.97323e-06</wgt>
  <wgt id="7">4.25353e-06</wgt>
  <wgt id="8">2.73392e-06</wgt>
  <wgt id="9">1.90954e-06</wgt>
  <wgt id="10">2.8251e-06</wgt>
  <wgt id="11">2.8251e-06</wgt>
  <wgt id="12">2.8251e-06</wgt>
  <wgt id="13">2.8251e-06</wgt>
  <wgt id="14">2.82863e-06</wgt>
  <wgt id="15">2.82217e-06</wgt>
  <wgt id="16">2.82705e-06</wgt>
  <wgt id="17">2.82269e-06</wgt>
  <wgt id="18">2.81445e-06</wgt>
  <wgt id="19">2.84081e-06</wgt>
  <wgt id="20">2.81723e-06</wgt>
  <wgt id="21">2.8304e-06</wgt>
  <wgt id="22">2.83028e-06</wgt>
  <wgt id="23">2.81769e-06</wgt>
  <wgt id="24">2.85426e-06</wgt>
  <wgt id="25">2.807e-06</wgt>
  <wgt id="26">2.82476e-06</wgt>
  <wgt id="27">2.82554e-06</wgt>
  <wgt id="28">2.85456e-06</wgt>
  <wgt id="29">2.81431e-06</wgt>
  <wgt id="30">2.83436e-06</wgt>
  <wgt id="31">2.81267e-06</wgt>
  <wgt id="32">2.82964e-06</wgt>
  <wgt id="33">2.82072e-06</wgt>
  <wgt id="34">2.7945e-06</wgt>
  <wgt id="35">2.88046e-06</wgt>
  <wgt id="36">2.83613e-06</wgt>
  <wgt id="37">2.8186e-06</wgt>
  <wgt id="38">2.81736e-06</wgt>
  <wgt id="39">2.82877e-06</wgt>
  <wgt id="40">2.82585e-06</wgt>
  <wgt id="41">2.82504e-06</wgt>
  <wgt id="42">2.84245e-06</wgt>
  <wgt id="43">2.79117e-06</wgt>
  <wgt id="44">2.83306e-06</wgt>
  <wgt id="45">2.82201e-06</wgt>
  <wgt id="46">2.82187e-06</wgt>
  <wgt id="47">2.8275e-06</wgt>
  <wgt id="48">2.80061e-06</wgt>
  <wgt id="49">2.83757e-06</wgt>
  <wgt id="50">2.81308e-06</wgt>
  <wgt id="51">2.83254e-06</wgt>
  <wgt id="52">2.82817e-06</wgt>
  <wgt id="53">2.82406e-06</wgt>
</rwgt>
</event>
<event>
 10      0 +2.8251000e-06 2.06004700e+02 7.54677100e-03 1.10251600e-01
        2 -1    0    0  502    0 +0.00000000000e+00 +0.00000000000e+00 +3.67202516220e+02  3.67202516220e+02  0.00000000000e+00 0.0000e+00 -1.0000e+00
        2 -1    0    0  501    0 +0.00000000000e+00 +0.00000000000e+00 -2.95128268180e+02  2.95128268180e+02  0.00000000000e+00 0.0000e+00 -1.0000e+00
       24  2    1    2    0    0 -1.20803957846e+01 +1.89986866543e+01 +1.02695343479e+01  8.63971517220e+01  8.27775237191e+01 0.0000e+00 0.0000e+00
        4  1    3    3  503    0 -1.59148056278e+01 -1.82501373993e+01 -2.51083728641e+01  3.48823585950e+01  0.00000000000e+00 0.0000e+00 -1.0000e+00
       -3  1    3    3    0  503 +3.83440984319e+00 +3.72488240537e+01 +3.53779072120e+01  5.15147931271e+01  0.00000000000e+00 0.0000e+00 1.0000e+00
       24  2    1    2    0    0 +1.88374357157e+02 -9.06402084429e+01 -4.22511387234e+01  2.28348062402e+02  8.15912560166e+01 0.0000e+00 0.0000e+00
        4  1    6    6  504    0 +3.08615928477e+01 +1.54310712652e+01 -6.11803275948e+00  3.50426340097e+01  0.00000000000e+00 0.0000e+00 -1.0000e+00
       -3  1    6    6    0  504 +1.57512764310e+02 -1.06071279708e+02 -3.61331059639e+01  1.93305428392e+02  0.00000000000e+00 0.0000e+00 1.0000e+00
        1  1    1    2  501    0 -8.47401597985e+01 -8.93604346804e+01 +1.05811524074e+02  1.62364591571e+02  0.00000000000e+00 0.0000e+00 -1.0000e+00
        1  1    1    2  502    0 -9.15538015743e+01 +1.61001956469e+02 -1.75567165896e+00  1.85220978705e+02  0.00000000000e+00 0.0000e+00 -1.0000e+00
#  0.1300000e+05  0.1300000e+05  0.1300000e+05  0.1300000e+05
<mgrwt>
<rscale>  2 0.16400337e+03</rscale>
<asrwt>0</asrwt>
<pdfrwt beam="1">  1        2 0.56492695e-01 0.82752215e+02</pdfrwt>
<pdfrwt beam="2">  1        2 0.45404349e-01 0.20600472e+03</pdfrwt>
<totfact> 0.18262429e+01</totfact>
</mgrwt>
<clustering>
<clus scale="   82.752">  1  3  2 -1</clus>
<clus scale="  121.719">  1  5  2 -1</clus>
<clus scale="  189.660">  1  6  2 -1</clus>
<clus scale="  206.005">  1  3  2 -1</clus>
</clustering>
<rwgt>
  <wgt id="1">4.29476e-06</wgt>
  <wgt id="2">2.77838e-06</wgt>
  <wgt id="3">1.94871e-06</wgt>
  <wgt id="4">4.36699e-06</wgt>
  <wgt id="5">2.8251e-06</wgt>
  <wgt id="6">1.98148e-06</wgt>
  <wgt id="7">4.35145e-06</wgt>
  <wgt id="8">2.81505e-06</wgt>
  <wgt id="9">1.97443e-06</wgt>
  <wgt id="10">2.8251e-06</wgt>
  <wgt id="11">2.8251e-06</wgt>
  <wgt id="12">2.8251e-06</wgt>
  <wgt id="13">2.8251e-06</wgt>
  <wgt id="14">2.82838e-06</wgt>
  <wgt id="15">2.82236e-06</wgt>
  <wgt id="16">2.83249e-06</wgt>
  <wgt id="17">2.81666e-06</wgt>
  <wgt id="18">2.81438e-06</wgt>
  <wgt id="19">2.8409e-06</wgt>
  <wgt id="20">2.8136e-06</wgt>
  <wgt id="21">2.83283e-06</wgt>
  <wgt id="22">2.83002e-06</wgt>
  <wgt id="23">2.81808e-06</wgt>
  <wgt id="24">2.85371e-06</wgt>
  <wgt id="25">2.80737e-06</wgt>
  <wgt id="26">2.82301e-06</wgt>
  <wgt id="27">2.82796e-06</wgt>
  <wgt id="28">2.85221e-06</wgt>
  <wgt id="29">2.81516e-06</wgt>
  <wgt id="30">2.83012e-06</wgt>
  <wgt id="31">2.81827e-06</wgt>
  <wgt id="32">2.83144e-06</wgt>
  <wgt id="33">2.81901e-06</wgt>
  <wgt id="34">2.79784e-06</wgt>
  <wgt id="35">2.87444e-06</wgt>
  <wgt id="36">2.82451e-06</wgt>
  <wgt id="37">2.82739e-06</wgt>
  <wgt id="38">2.81991e-06</wgt>
  <wgt id="39">2.82744e-06</wgt>
  <wgt id="40">2.8256e-06</wgt>
  <wgt id="41">2.82505e-06</wgt>
  <wgt id="42">2.84237e-06</wgt>
  <wgt id="43">2.78892e-06</wgt>
  <wgt id="44">2.83703e-06</wgt>
  <wgt id="45">2.8203e-06</wgt>
  <wgt id="46">2.82486e-06</wgt>
  <wgt id="47">2.82597e-06</wgt>
  <wgt id="48">2.78246e-06</wgt>
  <wgt id="49">2.84492e-06</wgt>
  <wgt id="50">2.81297e-06</wgt>
  <wgt id="51">2.83669e-06</wgt>
  <wgt id="52">2.81935e-06</wgt>
  <wgt id="53">2.8263e-06</wgt>
</rwgt>
</event>
<event>
 11      0 +2.8251000e-06 4.35323200e+02 7.54677100e-03 1.01269100e-01
        4 -1    0    0  501    0 +0.00000000000e+00 +0.00000000000e+00 +6.03159960430e+02  6.03159960430e+02  0.00000000000e+00 0.0000e+00 -1.0000e+00
        2 -1    0    0  503    0 +0.00000000000e+00 +0.00000000000e+00 -3.33883192210e+03  3.33883192210e+03  0.00000000000e+00 0.0000e+00 -1.0000e+00
       24  2    1    2    0    0 +7.77773620190e+00 +1.01158623633e+01 -3.77290617993e+01  9.11466337713e+01  8.19841624449e+01 0.0000e+00 0.0000e+00
        2  1    3    3  504    0 +1.62355761852e+01 +6.02104576341e+00 +2.34913570286e+01  2.91837417272e+01  0.00000000000e+00 0.0000e+00 -1.0000e+00
       -1  1    3    3    0  504 -8.45783998328e+00 +4.09481659987e+00 -6.12204188280e+01  6.19628920441e+01  0.00000000000e+00 0.0000e+00 1.0000e+00
       24  2    1    2    0    0 -1.16423572737e+02 -2.48372616241e+02 +3.01616014785e+02  4.15876698431e+02  8.20841223160e+01 0.0000e+00 0.0000e+00
       16  1    6    6    0    0 -1.09380040672e+02 -1.43311950399e+02 +2.04650898495e+02  2.72734850503e+02  0.00000000000e+00 0.0000e+00 -1.0000e+00
      -15  1    6    6    0    0 -7.04353206586e+00 -1.05060665842e+02 +9.69651162900e+01  1.43141847928e+02  1.77700000000e+00 0.0000e+00 1.0000e+00
       21  1    1    2  503  502 -5.40142522496e+02 -5.84397802294e+01 -1.45285155345e+03  1.55111146888e+03  0.00000000000e+00 0.0000e+00 -1.0000e+00
        1  1    1    2  501    0 +5.65442899688e+02 +3.82644025188e+02 -1.60974844073e+03  1.74855144770e+03  0.00000000000e+00 0.0000e+00 -1.0000e+00
        3  1    1    2  502    0 +8.33454593436e+01 -8.59474910806e+01 +6.30410795264e+01  1.35305633749e+02  0.00000000000e+00 0.0000e+00 -1.0000e+00
#  0.1300000e+05  0.1300000e+05  0.5904030e+03  0.1300000e+05  0.1300000e+05
<mgrwt>
<rscale>  3 0.30870629e+03</rscale>
<asrwt>0</asrwt>
<pdfrwt beam="1">  1        2 0.51366645e+00 0.32097782e+03</pdfrwt>
<pdfrwt beam="2">  1        4 0.92793840e-01 0.81172657e+02</pdfrwt>
<totfact> 0.65219433e-04</totfact>
</mgrwt>
<clustering>
<clus scale="   81.173">  1  3  2 -1</clus>
<clus scale="  120.352">  1  7  2 -1</clus>
<clus scale="  320.978">  2  4  1 -1</clus>
<clus scale="  590.403">  1  5  2 -1</clus>
<clus scale="  590.403">  2  3  1 -1</clus>
</clustering>
<rwgt>
  <wgt id="1">5.9041e-06</wgt>
  <wgt id="2">3.26786e-06</wgt>
  <wgt id="3">2.00057e-06</wgt>
  <wgt id="4">5.10415e-06</wgt>
  <wgt id="5">2.8251e-06</wgt>
  <wgt id="6">1.72951e-06</wgt>
  <wgt id="7">4.29705e-06</wgt>
  <wgt id="8">2.37838e-06</wgt>
  <wgt id="9">1.45603e-06</wgt>
  <wgt id="10">2.8251e-06</wgt>
  <wgt id="11">2.8251e-06</wgt>
  <wgt id="12">2.8251e-06</wgt>
  <wgt id="13">2.8251e-06</wgt>
  <wgt id="14">2.83491e-06</wgt>
  <wgt id="15">2.81698e-06</wgt>
  <wgt id="16">2.80894e-06</wgt>
  <wgt id="17">2.84325e-06</wgt>
  <wgt id="18">2.81656e-06</wgt>
  <wgt id="19">2.83772e-06</wgt>
  <wgt id="20">2.8238e-06</wgt>
  <wgt id="21">2.82595e-06</wgt>
  <wgt id="22">2.82713e-06</wgt>
  <wgt id="23">2.82224e-06</wgt>
  <wgt id="24">2.8338e-06</wgt>
  <wgt id="25">2.81954e-06</wgt>
  <wgt id="26">2.82972e-06</wgt>
  <wgt id="27">2.81883e-06</wgt>
  <wgt id="28">2.81402e-06</wgt>
  <wgt id="29">2.82875e-06</wgt>
  <wgt id="30">2.78868e-06</wgt>
  <wgt id="31">2.87022e-06</wgt>
  <wgt id="32">2.81631e-06</wgt>
  <wgt id="33">2.83357e-06</wgt>
  <wgt id="34">2.85328e-06</wgt>
  <wgt id="35">2.77659e-06</wgt>
  <wgt id="36">2.806e-06</wgt>
  <wgt id="37">2.83809e-06</wgt>
  <wgt id="38">2.79813e-06</wgt>
  <wgt id="39">2.83838e-06</wgt>
  <wgt id="40">2.83458e-06</wgt>
  <wgt id="41">2.81809e-06</wgt>
  <wgt id="42">2.81534e-06</wgt>
  <wgt id="43">2.84468e-06</wgt>
  <wgt id="44">2.82275e-06</wgt>
  <wgt id="45">2.82608e-06</wgt>
  <wgt id="46">2.8316e-06</wgt>
  <wgt id="47">2.82119e-06</wgt>
  <wgt id="48">2.84422e-06</wgt>
  <wgt id="49">2.82122e-06</wgt>
  <wgt id="50">2.84867e-06</wgt>
  <wgt id="51">2.82211e-06</wgt>
  <wgt id="52">2.83623e-06</wgt>
  <wgt id="53">2.82274e-06</wgt>
</rwgt>
</event>
<event>
 11      0 +2.8251000e-06 2.77604100e+02 7.54677100e-03 1.03205700e-01
        2 -1    0    0  503    0 +0.00000000000e+00 +0.00000000000e+00 +3.31324017070e+03  3.31324017070e+03  0.00000000000e+00 0.0000e+00 -1.0000e+00
        2 -1    0    0  501    0 +0.00000000000e+00 +0.00000000000e+00 -5.06033624680e+02  5.06033624680e+02  0.00000000000e+00 0.0000e+00 -1.0000e+00
       24  2    1    2    0    0 -6.54563358851e+01 -1.63889171918e+01 -1.95013087019e+02  2.21510900338e+02  8.05223344506e+01 0.0000e+00 0.0000e+00
        2  1    3    3  504    0 -6.84455881985e+01 -3.60862726147e+01 -1.81864254145e+02  1.97640139018e+02  0.00000000000e+00 0.0000e+00 -1.0000e+00
       -1  1    3    3    0  504 +2.98925231335e+00 +1.96973554229e+01 -1.31488328739e+01  2.38707613200e+01  0.00000000000e+00 0.0000e+00 1.0000e+00
       24  2    1    2    0    0 +3.72221099046e+01 +1.24326968491e+01 +5.43087434640e+02  5.50419800474e+02  8.04856364390e+01 0.0000e+00 0.0000e+00
       14  1    6    6    0    0 +1.34629673063e+01 -4.51970425661e+00 +4.86871427549e+02  4.87078501043e+02  0.00000000000e+00 0.0000e+00 -1.0000e+00
      -13  1    6    6    0    0 +2.37591425983e+01 +1.69524011057e+01 +5.62160070918e+01  6.33412994309e+01  0.00000000000e+00 0.0000e+00 1.0000e+00
       21  1    1    2  503  502 +3.92521583036e+01 -8.35107399735e+01 +1.23878857080e+02  1.54469242420e+02  0.00000000000e+00 0.0000e+00 1.0000e+00
        1  1    1    2  501    0 +6.82028257476e+02 -7.14632427779e+01 +1.98526688855e+03  2.10037000498e+03  0.00000000000e+00 0.0000e+00 -1.0000e+00
        1  1    1    2  502    0 -6.93046189799e+02 +1.58930203094e+02 +3.49986452774e+02  7.92503847168e+02  0.00000000000e+00 0.0000e+00 -1.0000e+00
#  0.1300000e+05  0.1300000e+05  0.9252494e+02  0.1300000e+05  0.1300000e+05
<mgrwt>
<rscale>  3 0.26679784e+03</rscale>
<asrwt>0</asrwt>
<pdfrwt beam="1">  1        2 0.50972926e+00 0.89455921e+02</pdfrwt>
<pdfrwt beam="2">  1        2 0.77851327e-01 0.10485361e+03</pdfrwt>
<totfact> 0.16614410e-02</totfact>
</mgrwt>
<clustering>
<clus scale="   89.456">  1  4  2 -1</clus>
<clus scale="   92.525">  1  5  2 -1</clus>
<clus scale="  104.854">  2  3  1 -1</clus>
<clus scale="  734.968">  1  6  2 -1</clus>
<clus scale="  734.968">  1  3  2 -1</clus>
</clustering>
<rwgt>
  <wgt id="1">6.95176e-06</wgt>
  <wgt id="2">3.79676e-06</wgt>
  <wgt id="3">2.30365e-06</wgt>
  <wgt id="4">5.17267e-06</wgt>
  <wgt id="5">2.8251e-06</wgt>
  <wgt id="6">1.71411e-06</wgt>
  <wgt id="7">4.03591e-06</wgt>
  <wgt id="8">2.20425e-06</wgt>
  <wgt id="9">1.33741e-06</wgt>
  <wgt id="10">2.8251e-06</wgt>
  <wgt id="11">2.8251e-06</wgt>
  <wgt id="12">2.8251e-06</wgt>
  <wgt id="13">2.8251e-06</wgt>
  <wgt id="14">2.82848e-06</wgt>
  <wgt id="15">2.82232e-06</wgt>
  <wgt id="16">2.80884e-06</wgt>
  <wgt id="17">2.84328e-06</wgt>
  <wgt id="18">2.80929e-06</wgt>
  <wgt id="19">2.84873e-06</wgt>
  <wgt id="20">2.81445e-06</wgt>
  <wgt id="21">2.83236e-06</wgt>
  <wgt id="22">2.83422e-06</wgt>
  <wgt id="23">2.81233e-06</wgt>
  <wgt id="24">2.87493e-06</wgt>
  <wgt id="25">2.79452e-06</wgt>
  <wgt id="26">2.82397e-06</wgt>
  <wgt id="27">2.82669e-06</wgt>
  <wgt id="28">2.84158e-06</wgt>
  <wgt id="29">2.81878e-06</wgt>
  <wgt id="30">2.8262e-06</wgt>
  <wgt id="31">2.82363e-06</wgt>
  <wgt id="32">2.81675e-06</wgt>
  <wgt id="33">2.83312e-06</wgt>
  <wgt id="34">2.78731e-06</wgt>
  <wgt id="35">2.89469e-06</wgt>
  <wgt id="36">2.84886e-06</wgt>
  <wgt id="37">2.81298e-06</wgt>
  <wgt id="38">2.81508e-06</wgt>
  <wgt id="39">2.83041e-06</wgt>
  <wgt id="40">2.84344e-06</wgt>
  <wgt id="41">2.80688e-06</wgt>
  <wgt id="42">2.84539e-06</wgt>
  <wgt id="43">2.79079e-06</wgt>
  <wgt id="44">2.83759e-06</wgt>
  <wgt id="45">2.82016e-06</wgt>
  <wgt id="46">2.82601e-06</wgt>
  <wgt id="47">2.82484e-06</wgt>
  <wgt id="48">2.81589e-06</wgt>
  <wgt id="49">2.83562e-06</wgt>
  <wgt id="50">2.81366e-06</wgt>
  <wgt id="51">2.84164e-06</wgt>
  <wgt id="52">2.83234e-06</wgt>
  <wgt id="53">2.82355e-06</wgt>
</rwgt>
</event>
<event>
 10      0 +2.8251000e-06 5.54307600e+02 7.54677100e-03 9.47566500e-02
        2 -1    0    0  502    0 +0.00000000000e+00 +0.00000000000e+00 +9.35591380100e+02  9.35591380100e+02  0.00000000000e+00 0.0000e+00 -1.0000e+00
        4 -1    0    0  501    0 +0.00000000000e+00 +0.00000000000e+00 -2.77605968000e+02  2.77605968000e+02  0.00000000000e+00 0.0000e+00 -1.0000e+00
       24  2    1    2    0    0 +8.62898429517e+01 +9.94401221081e+00 +4.56341741850e+02  4.70494107507e+02  7.46464966950e+01 0.0000e+00 0.0000e+00
        4  1    3    3  503    0 +9.07114665180e+01 +2.07809522663e+01 +4.43332711837e+02  4.52994825047e+02  0.00000000000e+00 0.0000e+00 -1.0000e+00
       -3  1    3    3    0  503 -4.42162356631e+00 -1.08369400555e+01 +1.30090300129e+01  1.74992824597e+01  0.00000000000e+00 0.0000e+00 1.0000e+00
       24  2    1    2    0    0 -1.23108023253e+02 -9.30917633070e+01 -1.10905150755e+02  2.06951050467e+02  8.18970270562e+01 0.0000e+00 0.0000e+00
       14  1    6    6    0    0 -5.43096285517e+01 -6.99400269370e+00 -7.11699050235e+01  8.97975902135e+01  0.00000000000e+00 0.0000e+00 -1.0000e+00
      -13  1    6    6    0    0 -6.87983947009e+01 -8.60977606133e+01 -3.97352457319e+01  1.17153460254e+02  0.00000000000e+00 0.0000e+00 1.0000e+00
        1  1    1    2  501    0 +7.16602804035e+00 +1.57738012484e+02 +3.92125801075e+02  4.22723640703e+02  0.00000000000e+00 0.0000e+00 -1.0000e+00
        3  1    1    2  502    0 +2.96521522606e+01 -7.45902613880e+01 -7.95769800696e+01  1.13028549423e+02  0.00000000000e+00 0.0000e+00 -1.0000e+00
#  0.1300000e+05  0.1300000e+05  0.1300000e+05  0.1300000e+05
<mgrwt>
<rscale>  2 0.52719714e+03</rscale>
<asrwt>0</asrwt>
<pdfrwt beam="1">  1        2 0.14393714e+00 0.55430763e+03</pdfrwt>
<pdfrwt beam="2">  1        4 0.42708610e-01 0.45356511e+03</pdfrwt>
<totfact> 0.83907689e-01</totfact>
</mgrwt>
<clustering>
<clus scale="   81.122">  3  6 -1 -1</clus>
<clus scale="  154.501">  4  5 -1 -1</clus>
<clus scale="  453.565">  2  3  1 -1</clus>
<clus scale="  554.308">  1  3  2 -1</clus>
</clustering>
<rwgt>
  <wgt id="1">4.08094e-06</wgt>
  <wgt id="2">2.83203e-06</wgt>
  <wgt id="3">2.0833e-06</wgt>
  <wgt id="4">4.07096e-06</wgt>
  <wgt id="5">2.8251e-06</wgt>
  <wgt id="6">2.0782e-06</wgt>
  <wgt id="7">3.96771e-06</wgt>
  <wgt id="8">2.75345e-06</wgt>
  <wgt id="9">2.02549e-06</wgt>
  <wgt id="10">2.8251e-06</wgt>
  <wgt id="11">2.8251e-06</wgt>
  <wgt id="12">2.8251e-06</wgt>
  <wgt id="13">2.8251e-06</wgt>
  <wgt id="14">2.83316e-06</wgt>
  <wgt id="15">2.81853e-06</wgt>
  <wgt id="16">2.82043e-06</wgt>
  <wgt id="17">2.83046e-06</wgt>
  <wgt id="18">2.81991e-06</wgt>
  <wgt id="19">2.83303e-06</wgt>
  <wgt id="20">2.82105e-06</wgt>
  <wgt id="21">2.82791e-06</wgt>
  <wgt id="22">2.82557e-06</wgt>
  <wgt id="23">2.82462e-06</wgt>
  <wgt id="24">2.82632e-06</wgt>
  <wgt id="25">2.82432e-06</wgt>
  <wgt id="26">2.82922e-06</wgt>
  <wgt id="27">2.81968e-06</wgt>
  <wgt id="28">2.84579e-06</wgt>
  <wgt id="29">2.81765e-06</wgt>
  <wgt id="30">2.8204e-06</wgt>
  <wgt id="31">2.83007e-06</wgt>
  <wgt id="32">2.82574e-06</wgt>
  <wgt id="33">2.8248e-06</wgt>
  <wgt id="34">2.82615e-06</wgt>
  <wgt id="35">2.82465e-06</wgt>
  <wgt id="36">2.82699e-06</wgt>
  <wgt id="37">2.82467e-06</wgt>
  <wgt id="38">2.81125e-06</wgt>
  <wgt id="39">2.83177e-06</wgt>
  <wgt id="40">2.82003e-06</wgt>
  <wgt id="41">2.83153e-06</wgt>
  <wgt id="42">2.82161e-06</wgt>
  <wgt id="43">2.83245e-06</wgt>
  <wgt id="44">2.82622e-06</wgt>
  <wgt id="45">2.82492e-06</wgt>
  <wgt id="46">2.82897e-06</wgt>
  <wgt id="47">2.82295e-06</wgt>
  <wgt id="48">2.82269e-06</wgt>
  <wgt id="49">2.82788e-06</wgt>
  <wgt id="50">2.8554e-06</wgt>
  <wgt id="51">2.79364e-06</wgt>
  <wgt id="52">2.83225e-06</wgt>
  <wgt id="53">2.82345e-06</wgt>
</rwgt>
</event>
<event>
 12      0 +2.8251000e-06 2.24532200e+02 7.54677100e-03 1.06793300e-01
        2 -1    0    0  503    0 +0.00000000000e+00 +0.00000000000e+00 +4.16950380350e+02  4.16950380350e+02  0.00000000000e+00 0.0000e+00 -1.0000e+00
        2 -1    0    0  504    0 +0.00000000000e+00 +0.00000000000e+00 -1.39680562410e+03  1.39680562410e+03  0.00000000000e+00 0.0000e+00 -1.0000e+00
       24  2    1    2    0    0 -1.56703882263e+02 -3.93704288897e+01 -9.59610241842e+01  2.10266686631e+02  9.43261573325e+01 0.0000e+00 0.0000e+00
       14  1    3    3    0    0 -2.67553698910e+01 +2.89589540540e+01 -2.87498978364e+01  4.87957730086e+01  0.00000000000e+00 0.0000e+00 -1.0000e+00
      -13  1    3    3    0    0 -1.29948512372e+02 -6.83293829437e+01 -6.72111263478e+01  1.61470913623e+02  0.00000000000e+00 0.0000e+00 1.0000e+00
       24  2    1    2    0    0 +3.00676954106e+01 +6.44353015333e+01 +8.83355490994e+01  1.41201713055e+02  8.41354868287e+01 0.0000e+00 0.0000e+00
       12  1    6    6    0    0 +5.32652653104e+01 +4.67226025681e+01 +8.67000833839e+01  1.11969167801e+02  0.00000000000e+00 0.0000e+00 -1.0000e+00
      -11  1    6    6    0    0 -2.31975698998e+01 +1.77126989652e+01 +1.63546571548e+00  2.92325452535e+01  0.00000000000e+00 0.0000e+00 1.0000e+00
       21  1    1    2  503  502 +1.08503117243e+02 -4.02220657053e+01 +2.70055828139e+01  1.18827785152e+02  0.00000000000e+00 0.0000e+00 -1.0000e+00
       21  1    1    2  504  501 +5.22010494451e+01 -1.21571005563e+01 -8.63271718478e+01  1.01612623509e+02  0.00000000000e+00 0.0000e+00 -1.0000e+00
        1  1    1    2  501    0 -1.86555177066e+01 +3.33049448580e+02 -6.43000138034e+01  3.39712312575e+02  0.00000000000e+00 0.0000e+00 -1.0000e+00
        1  1    1    2  502    0 -1.54124621288e+01 -3.05735154962e+02 -8.48608165828e+02  9.02134883528e+02  0.00000000000e+00 0.0000e+00 -1.0000e+00
#  0.1300000e+05  0.1300000e+05  0.1209420e+03  0.5575385e+02  0.1300000e+05  0.1300000e+05
<mgrwt>
<rscale>  3 0.20653396e+03</rscale>
<asrwt>  1 0.55753849e+02</asrwt>
<pdfrwt beam="1">  1        2 0.64146212e-01 0.10572283e+03</pdfrwt>
<pdfrwt beam="2">  2        2        2 0.21489317e+00 0.19531088e+00 0.55753849e+02 0.22453216e+03</pdfrwt>
<totfact> 0.31798987e-02</totfact>
</mgrwt>
<clustering>
<clus scale="   55.754">  2  6  1 -1</clus>
<clus scale="  105.723">  1  4  2 -1</clus>
<clus scale="  120.942">  1  5  2 -1</clus>
<clus scale="  147.678">  2  3  1 -1</clus>
<clus scale="  341.381">  1  7  2 -1</clus>
<clus scale="  341.381">  1  3  2 -1</clus>
</clustering>
<rwgt>
  <wgt id="1">5.84461e-06</wgt>
  <wgt id="2">3.1148e-06</wgt>
  <wgt id="3">1.85897e-06</wgt>
  <wgt id="4">5.30101e-06</wgt>
  <wgt id="5">2.8251e-06</wgt>
  <wgt id="6">1.68607e-06</wgt>
  <wgt id="7">4.82871e-06</wgt>
  <wgt id="8">2.57339e-06</wgt>
  <wgt id="9">1.53585e-06</wgt>
  <wgt id="10">3.68316e-06</wgt>
  <wgt id="11">2.8251e-06</wgt>
  <wgt id="12">2.29629e-06</wgt>
  <wgt id="13">2.8251e-06</wgt>
  <wgt id="14">2.82816e-06</wgt>
  <wgt id="15">2.82259e-06</wgt>
  <wgt id="16">2.81758e-06</wgt>
  <wgt id="17">2.83339e-06</wgt>
  <wgt id="18">2.81224e-06</wgt>
  <wgt id="19">2.84429e-06</wgt>
  <wgt id="20">2.81505e-06</wgt>
  <wgt id="21">2.83191e-06</wgt>
  <wgt id="22">2.83221e-06</wgt>
  <wgt id="23">2.81494e-06</wgt>
  <wgt id="24">2.86472e-06</wgt>
  <wgt id="25">2.80072e-06</wgt>
  <wgt id="26">2.82444e-06</wgt>
  <wgt id="27">2.82607e-06</wgt>
  <wgt id="28">2.86916e-06</wgt>
  <wgt id="29">2.80915e-06</wgt>
  <wgt id="30">2.83055e-06</wgt>
  <wgt id="31">2.81815e-06</wgt>
  <wgt id="32">2.82875e-06</wgt>
  <wgt id="33">2.82175e-06</wgt>
  <wgt id="34">2.78835e-06</wgt>
  <wgt id="35">2.89286e-06</wgt>
  <wgt id="36">2.83876e-06</wgt>
  <wgt id="37">2.81847e-06</wgt>
  <wgt id="38">2.81614e-06</wgt>
  <wgt id="39">2.82977e-06</wgt>
  <wgt id="40">2.8274e-06</wgt>
  <wgt id="41">2.8232e-06</wgt>
  <wgt id="42">2.84738e-06</wgt>
  <wgt id="43">2.78643e-06</wgt>
  <wgt id="44">2.83389e-06</wgt>
  <wgt id="45">2.82185e-06</wgt>
  <wgt id="46">2.82427e-06</wgt>
  <wgt id="47">2.82599e-06</wgt>
  <wgt id="48">2.80763e-06</wgt>
  <wgt id="49">2.83616e-06</wgt>
  <wgt id="50">2.81523e-06</wgt>
  <wgt id="51">2.83809e-06</wgt>
  <wgt id="52">2.83279e-06</wgt>
  <wgt id="53">2.82312e-06</wgt>
</rwgt>
</event>
<event>
 10      0 +2.8251000e-06 1.86804800e+02 7.54677100e-03 1.09226000e-01
        2 -1    0    0  501    0 +0.00000000000e+00 +0.00000000000e+00 +1.39512814930e+03  1.39512814930e+03  0.00000000000e+00 0.0000e+00 -1.0000e+00
       -3 -1    0    0    0  501 +0.00000000000e+00 +0.00000000000e+00 -1.48288710120e+02  1.48288710120e+02  0.00000000000e+00 0.0000e+00 1.0000e+00
       24  2    1    2    0    0 +3.51169948276e+01 -4.74235987151e+00 +2.20097983723e+00  8.81423887002e+01  8.06755419607e+01 0.0000e+00 0.0000e+00
       16  1    3    3    0    0 +5.24282323339e+01 +1.85703702578e+01 +1.30745366838e+01  5.71359930925e+01  0.00000000000e+00 0.0000e+00 -1.0000e+00
      -15  1    3    3    0    0 -1.73112375064e+01 -2.33127301293e+01 -1.08735568465e+01  3.10063956076e+01  1.77700000000e+00 0.0000e+00 1.0000e+00
       24  2    1    2    0    0 -7.14104663675e+01 +4.63767415685e+01 +1.72560709388e+02  2.08252218412e+02  7.96337314434e+01 0.0000e+00 0.0000e+00
        4  1    6    6  503    0 -2.68647324114e+01 +6.58365227773e+00 +2.23727343156e+00  2.77500219325e+01  0.00000000000e+00 0.0000e+00 -1.0000e+00
       -3  1    6    6    0  503 -4.45457339561e+01 +3.97930892908e+01 +1.70323435956e+02  1.80502196479e+02  0.00000000000e+00 0.0000e+00 1.0000e+00
        1  1    1    2  502    0 -1.46482405678e+02 -2.80174079119e+02 +7.04847263290e+02  7.72505193737e+02  0.00000000000e+00 0.0000e+00 -1.0000e+00
       -4  1    1    2    0  502 +1.82775877218e+02 +2.38539697422e+02 +3.67230486665e+02  4.74517058571e+02  0.00000000000e+00 0.0000e+00 1.0000e+00
#  0.1300000e+05  0.1300000e+05  0.1300000e+05  0.1300000e+05
<mgrwt>
<rscale>  2 0.17534066e+03</rscale>
<asrwt>0</asrwt>
<pdfrwt beam="1">  1        2 0.21463510e+00 0.11323370e+03</pdfrwt>
<pdfrwt beam="2">  1       -3 0.22813648e-01 0.87892888e+02</pdfrwt>
<totfact> 0.28820360e+00</totfact>
</mgrwt>
<clustering>
<clus scale="   87.893">  2  3  1 -1</clus>
<clus scale="  113.234">  1  4  2 -1</clus>
<clus scale="  308.177">  2  6  1 -1</clus>
<clus scale="  308.177">  1  3  2 -1</clus>
</clustering>
<rwgt>
  <wgt id="1">4.36382e-06</wgt>
  <wgt id="2">2.83668e-06</wgt>
  <wgt id="3">1.99587e-06</wgt>
  <wgt id="4">4.346e-06</wgt>
  <wgt id="5">2.8251e-06</wgt>
  <wgt id="6">1.98772e-06</wgt>
  <wgt id="7">4.18917e-06</wgt>
  <wgt id="8">2.72315e-06</wgt>
  <wgt id="9">1.91599e-06</wgt>
  <wgt id="10">2.8251e-06</wgt>
  <wgt id="11">2.8251e-06</wgt>
  <wgt id="12">2.8251e-06</wgt>
  <wgt id="13">2.8251e-06</wgt>
  <wgt id="14">2.83221e-06</wgt>
  <wgt id="15">2.81912e-06</wgt>
  <wgt id="16">2.79871e-06</wgt>
  <wgt id="17">2.85458e-06</wgt>
  <wgt id="18">2.84025e-06</wgt>
  <wgt id="19">2.80223e-06</wgt>
  <wgt id="20">2.8069e-06</wgt>
  <wgt id="21">2.83722e-06</wgt>
  <wgt id="22">2.84117e-06</wgt>
  <wgt id="23">2.80212e-06</wgt>
  <wgt id="24">2.84608e-06</wgt>
  <wgt id="25">2.81202e-06</wgt>
  <wgt id="26">2.82759e-06</wgt>
  <wgt id="27">2.82158e-06</wgt>
  <wgt id="28">2.84679e-06</wgt>
  <wgt id="29">2.81709e-06</wgt>
  <wgt id="30">2.84541e-06</wgt>
  <wgt id="31">2.79754e-06</wgt>
  <wgt id="32">2.81933e-06</wgt>
  <wgt id="33">2.83051e-06</wgt>
  <wgt id="34">2.78647e-06</wgt>
  <wgt id="35">2.89589e-06</wgt>
  <wgt id="36">2.84764e-06</wgt>
  <wgt id="37">2.8114e-06</wgt>
  <wgt id="38">2.81754e-06</wgt>
  <wgt id="39">2.82877e-06</wgt>
  <wgt id="40">2.83157e-06</wgt>
  <wgt id="41">2.82032e-06</wgt>
  <wgt id="42">2.83731e-06</wgt>
  <wgt id="43">2.80453e-06</wgt>
  <wgt id="44">2.80653e-06</wgt>
  <wgt id="45">2.83234e-06</wgt>
  <wgt id="46">2.85758e-06</wgt>
  <wgt id="47">2.80184e-06</wgt>
  <wgt id="48">2.82046e-06</wgt>
  <wgt id="49">2.83039e-06</wgt>
  <wgt id="50">2.82126e-06</wgt>
  <wgt id="51">2.81509e-06</wgt>
  <wgt id="52">2.76252e-06</wgt>
  <wgt id="53">2.84526e-06</wgt>
</rwgt>
</event>
<event>
 10      0 +2.8251000e-06 2.63717300e+02 7.54677100e-03 1.04225300e-01
        2 -1    0    0  502    0 +0.00000000000e+00 +0.00000000000e+00 +1.86978210920e+03  1.86978210920e+03  0.00000000000e+00 0.0000e+00 -1.0000e+00
        4 -1    0    0  501    0 +0.00000000000e+00 +0.00000000000e+00 -1.23728355240e+02  1.23728355240e+02  0.00000000000e+00 0.0000e+00 -1.0000e+00
       24  2    1    2    0    0 +6.91837000542e+01 +1.17326318569e+02 -7.02499876102e+00  1.53254292965e+02  6.98976274458e+01 0.0000e+00 0.0000e+00
        2  1    3    3  503    0 +5.47242543934e+00 +5.49313885751e+01 -2.76262394758e+01  6.17301708936e+01  0.00000000000e+00 0.0000e+00 -1.0000e+00
       -1  1    3    3    0  503 +6.37112746149e+01 +6.23949299935e+01 +2.06012407148e+01  9.15241220714e+01  0.00000000000e+00 0.0000e+00 1.0000e+00
       24  2    1    2    0    0 +1.86309118551e+02 -2.65130380158e+01 +8.96484602130e+02  9.19719407604e+02  8.23718278815e+01 0.0000e+00 0.0000e+00
        4  1    6    6  504    0 +1.54515687075e+02 -5.09278199091e+01 +7.71356070217e+02  7.88326662909e+02  0.00000000000e+00 0.0000e+00 -1.0000e+00
       -3  1    6    6    0  504 +3.17934314758e+01 +2.44147818934e+01 +1.25128531913e+02  1.31392744695e+02  0.00000000000e+00 0.0000e+00 1.0000e+00
        1  1    1    2  501    0 -2.04824734111e+02 -2.21010919488e+01 +7.76887945752e+02  8.03739080936e+02  0.00000000000e+00 0.0000e+00 -1.0000e+00
        3  1    1    2  502    0 -5.06680844942e+01 -6.87121886040e+01 +7.97062048395e+01  1.16797682935e+02  0.00000000000e+00 0.0000e+00 -1.0000e+00
#  0.1300000e+05  0.1300000e+05  0.1300000e+05  0.1300000e+05
<mgrwt>
<rscale>  2 0.24762107e+03</rscale>
<asrwt>0</asrwt>
<pdfrwt beam="1">  1        2 0.28765879e+00 0.20499095e+03</pdfrwt>
<pdfrwt beam="2">  1        4 0.19035132e-01 0.26371726e+03</pdfrwt>
<totfact> 0.15741048e+00</totfact>
</mgrwt>
<clustering>
<clus scale="   83.125">  3  6 -1 -1</clus>
<clus scale="  204.991">  1  4  2 -1</clus>
<clus scale="   67.878">  1  5  2 -1</clus>
<clus scale="  263.717">  1  3  2 -1</clus>
</clustering>
<rwgt>
  <wgt id="1">4.33897e-06</wgt>
  <wgt id="2">2.88589e-06</wgt>
  <wgt id="3">2.06186e-06</wgt>
  <wgt id="4">4.24758e-06</wgt>
  <wgt id="5">2.8251e-06</wgt>
  <wgt id="6">2.01843e-06</wgt>
  <wgt id="7">4.05108e-06</wgt>
  <wgt id="8">2.69441e-06</wgt>
  <wgt id="9">1.92506e-06</wgt>
  <wgt id="10">2.8251e-06</wgt>
  <wgt id="11">2.8251e-06</wgt>
  <wgt id="12">2.8251e-06</wgt>
  <wgt id="13">2.8251e-06</wgt>
  <wgt id="14">2.83221e-06</wgt>
  <wgt id="15">2.8193e-06</wgt>
  <wgt id="16">2.81494e-06</wgt>
  <wgt id="17">2.83636e-06</wgt>
  <wgt id="18">2.81916e-06</wgt>
  <wgt id="19">2.83389e-06</wgt>
  <wgt id="20">2.82503e-06</wgt>
  <wgt id="21">2.82513e-06</wgt>
  <wgt id="22">2.82667e-06</wgt>
  <wgt id="23">2.8228e-06</wgt>
  <wgt id="24">2.83169e-06</wgt>
  <wgt id="25">2.82088e-06</wgt>
  <wgt id="26">2.831e-06</wgt>
  <wgt id="27">2.81709e-06</wgt>
  <wgt id="28">2.84122e-06</wgt>
  <wgt id="29">2.81913e-06</wgt>
  <wgt id="30">2.83734e-06</wgt>
  <wgt id="31">2.80745e-06</wgt>
  <wgt id="32">2.81936e-06</wgt>
  <wgt id="33">2.83046e-06</wgt>
  <wgt id="34">2.80336e-06</wgt>
  <wgt id="35">2.86421e-06</wgt>
  <wgt id="36">2.83398e-06</wgt>
  <wgt id="37">2.82056e-06</wgt>
  <wgt id="38">2.82314e-06</wgt>
  <wgt id="39">2.82643e-06</wgt>
  <wgt id="40">2.82871e-06</wgt>
  <wgt id="41">2.82286e-06</wgt>
  <wgt id="42">2.82321e-06</wgt>
  <wgt id="43">2.83086e-06</wgt>
  <wgt id="44">2.82784e-06</wgt>
  <wgt id="45">2.82414e-06</wgt>
  <wgt id="46">2.82652e-06</wgt>
  <wgt id="47">2.82422e-06</wgt>
  <wgt id="48">2.82816e-06</wgt>
  <wgt id="49">2.82768e-06</wgt>
  <wgt id="50">2.83815e-06</wgt>
  <wgt id="51">2.79699e-06</wgt>
  <wgt id="52">2.83182e-06</wgt>
  <wgt id="53">2.82367e-06</wgt>
</rwgt>
</event>
<event>
 10      0 +2.8251000e-06 7.72975900e+02 7.54677100e-03 9.24605500e-02
       -1 -1    0    0    0  501 +0.00000000000e+00 +0.00000000000e+00 +1.99832930280e+02  1.99832930280e+02  0.00000000000e+00 0.0000e+00 1.0000e+00
        2 -1    0    0  502    0 +0.00000000000e+00 +0.00000000000e+00 -1.91874178660e+03  1.91874178660e+03  0.00000000000e+00 0.0000e+00 -1.0000e+00
       24  2    1    2    0    0 +1.15909657350e+02 +4.19349792826e+01 -3.80244128451e+01  1.49096391515e+02  7.47682207634e+01 0.0000e+00 0.0000e+00
        4  1    3    3  503    0 +3.16603653977e+01 +2.92170222643e+01 -4.65987363369e+01  6.34622356627e+01  0.00000000000e+00 0.0000e+00 -1.0000e+00
       -3  1    3    3    0  503 +8.42492919520e+01 +1.27179570183e+01 +8.57432349188e+00  8.56341558520e+01  0.00000000000e+00 0.0000e+00 1.0000e+00
       24  2    1    2    0    0 -7.74670518181e+01 -3.65904619686e+02 -2.45347512212e+02  4.54610824377e+02  8.11681283941e+01 0.0000e+00 0.0000e+00
        2  1    6    6  504    0 -4.60804120924e+01 -3.21779182717e+02 -1.87018421857e+02  3.75021515279e+02  0.00000000000e+00 0.0000e+00 -1.0000e+00
       -1  1    6    6    0  504 -3.13866397257e+01 -4.41254369694e+01 -5.83290903547e+01  7.95893090975e+01  0.00000000000e+00 0.0000e+00 1.0000e+00
        3  1    1    2  502    0 +3.18517841316e+01 -6.76521173136e+01 -1.29163762494e+02  1.49246851461e+02  0.00000000000e+00 0.0000e+00 -1.0000e+00
       -4  1    1    2    0  501 -7.02943896632e+01 +3.91621757717e+02 -1.30637316877e+03  1.36562064953e+03  0.00000000000e+00 0.0000e+00 1.0000e+00
#  0.1300000e+05  0.1300000e+05  0.1300000e+05  0.2925021e+03
<mgrwt>
<rscale>  1 0.64839096e+03</rscale>
<asrwt>  1 0.29250206e+03</asrwt>
<pdfrwt beam="1">  1        2 0.29519104e+00 0.77297592e+03</pdfrwt>
<pdfrwt beam="2">  1       -1 0.30743528e-01 0.38269246e+03</pdfrwt>
<totfact> 0.90924666e-01</totfact>
</mgrwt>
<clustering>
<clus scale="   74.766">  3  5 -1 -1</clus>
<clus scale="  382.692">  1  4  2 -1</clus>
<clus scale="  292.502">  3  6 -1 -1</clus>
<clus scale="  772.976">  2  3  1 -1</clus>
</clustering>
<rwgt>
  <wgt id="1">3.75499e-06</wgt>
  <wgt id="2">3.14389e-06</wgt>
  <wgt id="3">2.70611e-06</wgt>
  <wgt id="4">3.37424e-06</wgt>
  <wgt id="5">2.8251e-06</wgt>
  <wgt id="6">2.43171e-06</wgt>
  <wgt id="7">3.04265e-06</wgt>
  <wgt id="8">2.54748e-06</wgt>
  <wgt id="9">2.19274e-06</wgt>
  <wgt id="10">3.44649e-06</wgt>
  <wgt id="11">2.8251e-06</wgt>
  <wgt id="12">2.3962e-06</wgt>
  <wgt id="13">2.8251e-06</wgt>
  <wgt id="14">2.83049e-06</wgt>
  <wgt id="15">2.82048e-06</wgt>
  <wgt id="16">2.82706e-06</wgt>
  <wgt id="17">2.82245e-06</wgt>
  <wgt id="18">2.81054e-06</wgt>
  <wgt id="19">2.84652e-06</wgt>
  <wgt id="20">2.83657e-06</wgt>
  <wgt id="21">2.81724e-06</wgt>
  <wgt id="22">2.8347e-06</wgt>
  <wgt id="23">2.81137e-06</wgt>
  <wgt id="24">2.87577e-06</wgt>
  <wgt id="25">2.794e-06</wgt>
  <wgt id="26">2.8267e-06</wgt>
  <wgt id="27">2.82278e-06</wgt>
  <wgt id="28">2.84737e-06</wgt>
  <wgt id="29">2.81686e-06</wgt>
  <wgt id="30">2.83061e-06</wgt>
  <wgt id="31">2.81703e-06</wgt>
  <wgt id="32">2.83184e-06</wgt>
  <wgt id="33">2.81851e-06</wgt>
  <wgt id="34">2.798e-06</wgt>
  <wgt id="35">2.87444e-06</wgt>
  <wgt id="36">2.84563e-06</wgt>
  <wgt id="37">2.81309e-06</wgt>
  <wgt id="38">2.82849e-06</wgt>
  <wgt id="39">2.82409e-06</wgt>
  <wgt id="40">2.82608e-06</wgt>
  <wgt id="41">2.82453e-06</wgt>
  <wgt id="42">2.84504e-06</wgt>
  <wgt id="43">2.78339e-06</wgt>
  <wgt id="44">2.83032e-06</wgt>
  <wgt id="45">2.82338e-06</wgt>
  <wgt id="46">2.81553e-06</wgt>
  <wgt id="47">2.8317e-06</wgt>
  <wgt id="48">2.83716e-06</wgt>
  <wgt id="49">2.82254e-06</wgt>
  <wgt id="50">2.83107e-06</wgt>
  <wgt id="51">2.81506e-06</wgt>
  <wgt id="52">2.84068e-06</wgt>
  <wgt id="53">2.82108e-06</wgt>
</rwgt>
</event>
<event>
 12      0 +2.8251000e-06 7.51159500e+02 7.54677100e-03 9.44733200e-02
        4 -1    0    0  501    0 +0.00000000000e+00 +0.00000000000e+00 +1.57719132930e+02  1.57719132930e+02  0.00000000000e+00 0.0000e+00 -1.0000e+00
        2 -1    0    0  503    0 +0.00000000000e+00 +0.00000000000e+00 -3.25843372530e+03  3.25843372530e+03  0.00000000000e+00 0.0000e+00 -1.0000e+00
       24  2    1    2    0    0 +6.66883368011e+01 -2.86413195781e+01 -1.83003476518e+01  1.09360291434e+02  7.97314941902e+01 0.0000e+00 0.0000e+00
       12  1    3    3    0    0 +7.34005069354e+01 +4.13112918200e+00 -1.88809196675e+01  7.59025017650e+01  0.00000000000e+00 0.0000e+00 -1.0000e+00
      -11  1    3    3    0    0 -6.71217013431e+00 -3.27724487601e+01 +5.80572015730e-01  3.34577896686e+01  0.00000000000e+00 0.0000e+00 1.0000e+00
       24  2    1    2    0    0 +3.83727977523e+00 +1.15768460583e+02 -1.92964618126e+03  1.93479503930e+03  8.05009196033e+01 0.0000e+00 0.0000e+00
        2  1    6    6  505    0 +4.08190068104e+01 +4.78877372413e+01 -9.71524212059e+02  9.73559819073e+02  0.00000000000e+00 0.0000e+00 -1.0000e+00
       -1  1    6    6    0  505 -3.69817270351e+01 +6.78807233413e+01 -9.58121969199e+02  9.61235220224e+02  0.00000000000e+00 0.0000e+00 1.0000e+00
       21  1    1    2  503  504 +5.42831956627e+01 +9.11708796354e+00 -8.45249717769e+02  8.47040065176e+02  0.00000000000e+00 0.0000e+00 -1.0000e+00
       21  1    1    2  504  502 +5.39999498680e+01 -3.15241823233e+01 -2.70596114994e+02  2.77726531154e+02  0.00000000000e+00 0.0000e+00 -1.0000e+00
        1  1    1    2  501    0 -7.99435105881e+01 +4.84262091584e+01 -2.35143998368e+01  9.63794045338e+01  0.00000000000e+00 0.0000e+00 -1.0000e+00
        3  1    1    2  502    0 -9.88652515190e+01 -1.13146255803e+02 -1.34078308592e+01  1.50851526636e+02  0.00000000000e+00 0.0000e+00 -1.0000e+00
#  0.1300000e+05  0.1300000e+05  0.5504047e+02  0.6745648e+02  0.1300000e+05  0.1300000e+05
<mgrwt>
<rscale>  2 0.54053814e+03</rscale>
<asrwt>  2 0.55040466e+02 0.67456482e+02</asrwt>
<pdfrwt beam="1">  3        2        2        2 0.50129750e+00 0.36828120e+00 0.31666221e+00 0.55040466e+02 0.67456482e+02 0.75115945e+03</pdfrwt>
<pdfrwt beam="2">  1        4 0.24264482e-01 0.75115945e+03</pdfrwt>
<totfact> 0.25342727e-03</totfact>
</mgrwt>
<clustering>
<clus scale="   55.040">  2  5  1 -1</clus>
<clus scale="   67.456">  2  6  1 -1</clus>
<clus scale="   90.548">  3  7 -1 -1</clus>
<clus scale="  147.796">  4  8 -1 -1</clus>
<clus scale="  201.423">  2  3  1 -1</clus>
<clus scale="  751.159">  2  3  1 -1</clus>
</clustering>
<rwgt>
  <wgt id="1">4.32458e-06</wgt>
  <wgt id="2">3.00492e-06</wgt>
  <wgt id="3">2.21243e-06</wgt>
  <wgt id="4">4.06579e-06</wgt>
  <wgt id="5">2.8251e-06</wgt>
  <wgt id="6">2.08003e-06</wgt>
  <wgt id="7">3.78392e-06</wgt>
  <wgt id="8">2.62925e-06</wgt>
  <wgt id="9">1.93583e-06</wgt>
  <wgt id="10">4.75816e-06</wgt>
  <wgt id="11">2.8251e-06</wgt>
  <wgt id="12">1.87686e-06</wgt>
  <wgt id="13">2.8251e-06</wgt>
  <wgt id="14">2.83303e-06</wgt>
  <wgt id="15">2.81847e-06</wgt>
  <wgt id="16">2.80979e-06</wgt>
  <wgt id="17">2.84237e-06</wgt>
  <wgt id="18">2.81675e-06</wgt>
  <wgt id="19">2.83745e-06</wgt>
  <wgt id="20">2.82323e-06</wgt>
  <wgt id="21">2.82622e-06</wgt>
  <wgt id="22">2.82823e-06</wgt>
  <wgt id="23">2.8208e-06</wgt>
  <wgt id="24">2.8398e-06</wgt>
  <wgt id="25">2.81572e-06</wgt>
  <wgt id="26">2.82952e-06</wgt>
  <wgt id="27">2.81913e-06</wgt>
  <wgt id="28">2.81556e-06</wgt>
  <wgt id="29">2.82815e-06</wgt>
  <wgt id="30">2.82821e-06</wgt>
  <wgt id="31">2.8195e-06</wgt>
  <wgt id="32">2.81049e-06</wgt>
  <wgt id="33">2.83903e-06</wgt>
  <wgt id="34">2.81034e-06</wgt>
  <wgt id="35">2.85158e-06</wgt>
  <wgt id="36">2.8396e-06</wgt>
  <wgt id="37">2.81734e-06</wgt>
  <wgt id="38">2.81816e-06</wgt>
  <wgt id="39">2.82879e-06</wgt>
  <wgt id="40">2.84078e-06</wgt>
  <wgt id="41">2.81036e-06</wgt>
  <wgt id="42">2.82057e-06</wgt>
  <wgt id="43">2.83507e-06</wgt>
  <wgt id="44">2.83061e-06</wgt>
  <wgt id="45">2.82288e-06</wgt>
  <wgt id="46">2.82843e-06</wgt>
  <wgt id="47">2.82302e-06</wgt>
  <wgt id="48">2.8322e-06</wgt>
  <wgt id="49">2.82768e-06</wgt>
  <wgt id="50">2.84272e-06</wgt>
  <wgt id="51">2.79805e-06</wgt>
  <wgt id="52">2.83076e-06</wgt>
  <wgt id="53">2.82409e-06</wgt>
</rwgt>
</event>
<event>
 11      0 +2.8251000e-06 3.08051200e+02 7.54677100e-03 1.04661600e-01
        2 -1    0    0  503    0 +0.00000000000e+00 +0.00000000000e+00 +3.45624449000e+03  3.45624449000e+03  0.00000000000e+00 0.0000e+00 -1.0000e+00
       -1 -1    0    0    0  501 +0.00000000000e+00 +0.00000000000e+00 -2.09368237120e+02  2.09368237120e+02  0.00000000000e+00 0.0000e+00 1.0000e+00
       24  2    1    2    0    0 +2.50233809482e+02 -1.12998846087e+02 +9.11269765655e+02  9.55154117790e+02  8.07533547884e+01 0.0000e+00 0.0000e+00
       12  1    3    3    0    0 +2.39789709070e+02 -1.06931983745e+02 +7.73279160552e+02  8.16635912673e+02  0.00000000000e+00 0.0000e+00 -1.0000e+00
      -11  1    3    3    0    0 +1.04441004115e+01 -6.06686234175e+00 +1.37990605103e+02  1.38518205117e+02  0.00000000000e+00 0.0000e+00 1.0000e+00
       24  2    1    2    0    0 +3.94698647143e+01 +6.81092768776e+01 +1.90829772359e+01  1.14237359741e+02  8.05560086099e+01 0.0000e+00 0.0000e+00
        2  1    6    6  504    0 -1.70075354791e+01 +5.03318401399e+01 +4.90034153791e+00  5.33531980497e+01  0.00000000000e+00 0.0000e+00 -1.0000e+00
       -1  1    6    6    0  504 +5.64774001934e+01 +1.77774367377e+01 +1.41826356980e+01  6.08841616918e+01  0.00000000000e+00 0.0000e+00 1.0000e+00
       21  1    1    2  503  501 +6.36419583967e+01 -4.12521101315e+01 +8.01660934403e+01  1.10356866557e+02  0.00000000000e+00 0.0000e+00 1.0000e+00
        1  1    1    2  502    0 -1.22930704428e+02 +3.25927971948e+02 +2.09626828591e+03  2.12501334761e+03  0.00000000000e+00 0.0000e+00 -1.0000e+00
       -2  1    1    2    0  502 -2.30414928165e+02 -2.39786292607e+02 +1.40089130636e+02  3.60851035423e+02  0.00000000000e+00 0.0000e+00 1.0000e+00
#  0.1300000e+05  0.1300000e+05  0.7584164e+02  0.1300000e+05  0.1300000e+05
<mgrwt>
<rscale>  2 0.23995320e+03</rscale>
<asrwt>  1 0.75841639e+02</asrwt>
<pdfrwt beam="1">  1        2 0.53172992e+00 0.30805118e+03</pdfrwt>
<pdfrwt beam="2">  2       -1       -1 0.32210498e-01 0.29000535e-01 0.75841639e+02 0.30805118e+03</pdfrwt>
<totfact> 0.16584628e-02</totfact>
</mgrwt>
<clustering>
<clus scale="   75.842">  2  5  1 -1</clus>
<clus scale="  113.406">  2  4  1 -1</clus>
<clus scale="  267.599">  2  7  1 -1</clus>
<clus scale="  297.369">  2  6  1 -1</clus>
<clus scale="  308.051">  1  3  2 -1</clus>
</clustering>
<rwgt>
  <wgt id="1">5.28722e-06</wgt>
  <wgt id="2">3.50967e-06</wgt>
  <wgt id="3">2.50418e-06</wgt>
  <wgt id="4">4.25593e-06</wgt>
  <wgt id="5">2.8251e-06</wgt>
  <wgt id="6">2.01573e-06</wgt>
  <wgt id="7">3.50681e-06</wgt>
  <wgt id="8">2.32783e-06</wgt>
  <wgt id="9">1.66093e-06</wgt>
  <wgt id="10">3.62653e-06</wgt>
  <wgt id="11">2.8251e-06</wgt>
  <wgt id="12">2.31834e-06</wgt>
  <wgt id="13">2.8251e-06</wgt>
  <wgt id="14">2.83092e-06</wgt>
  <wgt id="15">2.82031e-06</wgt>
  <wgt id="16">2.8228e-06</wgt>
  <wgt id="17">2.82745e-06</wgt>
  <wgt id="18">2.80823e-06</wgt>
  <wgt id="19">2.85018e-06</wgt>
  <wgt id="20">2.83545e-06</wgt>
  <wgt id="21">2.81816e-06</wgt>
  <wgt id="22">2.83619e-06</wgt>
  <wgt id="23">2.80935e-06</wgt>
  <wgt id="24">2.88398e-06</wgt>
  <wgt id="25">2.78933e-06</wgt>
  <wgt id="26">2.82574e-06</wgt>
  <wgt id="27">2.82432e-06</wgt>
  <wgt id="28">2.81697e-06</wgt>
  <wgt id="29">2.82778e-06</wgt>
  <wgt id="30">2.82551e-06</wgt>
  <wgt id="31">2.82352e-06</wgt>
  <wgt id="32">2.82154e-06</wgt>
  <wgt id="33">2.8284e-06</wgt>
  <wgt id="34">2.80148e-06</wgt>
  <wgt id="35">2.868e-06</wgt>
  <wgt id="36">2.85868e-06</wgt>
  <wgt id="37">2.80462e-06</wgt>
  <wgt id="38">2.82723e-06</wgt>
  <wgt id="39">2.82444e-06</wgt>
  <wgt id="40">2.84023e-06</wgt>
  <wgt id="41">2.8104e-06</wgt>
  <wgt id="42">2.8426e-06</wgt>
  <wgt id="43">2.78692e-06</wgt>
  <wgt id="44">2.83376e-06</wgt>
  <wgt id="45">2.82195e-06</wgt>
  <wgt id="46">2.8176e-06</wgt>
  <wgt id="47">2.83066e-06</wgt>
  <wgt id="48">2.83513e-06</wgt>
  <wgt id="49">2.82616e-06</wgt>
  <wgt id="50">2.82784e-06</wgt>
  <wgt id="51">2.82002e-06</wgt>
  <wgt id="52">2.83586e-06</wgt>
  <wgt id="53">2.82267e-06</wgt>
</rwgt>
</event>
<event>
 10      0 +2.8251000e-06 2.26209100e+02 7.54677100e-03 1.06288700e-01
        2 -1    0    0  502    0 +0.00000000000e+00 +0.00000000000e+00 +2.53132043510e+03  2.53132043510e+03  0.00000000000e+00 0.0000e+00 -1.0000e+00
        4 -1    0    0  501    0 +0.00000000000e+00 +0.00000000000e+00 -9.79080332010e+02  9.79080332010e+02  0.00000000000e+00 0.0000e+00 -1.0000e+00
       24  2    1    2    0    0 +6.72870837077e+00 -1.05500606921e+02 +7.77067206309e+02  7.88286154040e+02  7.99122265601e+01 0.0000e+00 0.0000e+00
       16  1    3    3    0    0 +1.69778057685e+01 +5.71573195854e-01 +3.86433228120e+01  4.22123084252e+01  0.00000000000e+00 0.0000e+00 -1.0000e+00
      -15  1    3    3    0    0 -1.02490973977e+01 -1.06072180117e+02 +7.38423883497e+02  7.46073845615e+02  1.77700000000e+00 0.0000e+00 1.0000e+00
       24  2    1    2    0    0 -6.22012263234e+00 -7.18881488198e+01 -4.79712807984e+02  4.91260579662e+02  7.74982781709e+01 0.0000e+00 0.0000e+00
        4  1    6    6  503    0 +1.21785352833e+01 -8.14820469360e+01 -4.20428794695e+02  4.28425036737e+02  0.00000000000e+00 0.0000e+00 -1.0000e+00
       -3  1    6    6    0  503 -1.83986579157e+01 +9.59389811617e+00 -5.92840132885e+01  6.28355429242e+01  0.00000000000e+00 0.0000e+00 1.0000e+00
        1  1    1    2  501    0 +6.83558051373e+01 -2.70152195986e+02 +1.62333631619e+03  1.64708090893e+03  0.00000000000e+00 0.0000e+00 -1.0000e+00
        3  1    1    2  502    0 -6.88643908758e+01 +4.47540951727e+02 -3.68450611427e+02  5.83773124479e+02  0.00000000000e+00 0.0000e+00 -1.0000e+00
#  0.1300000e+05  0.1300000e+05  0.1300000e+05  0.1300000e+05
<mgrwt>
<rscale>  2 0.21388359e+03</rscale>
<asrwt>0</asrwt>
<pdfrwt beam="1">  1        2 0.38943391e+00 0.13459141e+03</pdfrwt>
<pdfrwt beam="2">  1        4 0.15062774e+00 0.10756897e+03</pdfrwt>
<totfact> 0.65361886e-03</totfact>
</mgrwt>
<clustering>
<clus scale="  107.569">  2  4  1 -1</clus>
<clus scale="  134.591">  1  3  2 -1</clus>
<clus scale="  380.192">  2  6  1 -1</clus>
<clus scale="  380.192">  1  3  2 -1</clus>
</clustering>
<rwgt>
  <wgt id="1">5.12256e-06</wgt>
  <wgt id="2">3.37502e-06</wgt>
  <wgt id="3">2.39612e-06</wgt>
  <wgt id="4">4.28789e-06</wgt>
  <wgt id="5">2.8251e-06</wgt>
  <wgt id="6">2.0057e-06</wgt>
  <wgt id="7">3.56052e-06</wgt>
  <wgt id="8">2.34587e-06</wgt>
  <wgt id="9">1.66546e-06</wgt>
  <wgt id="10">2.8251e-06</wgt>
  <wgt id="11">2.8251e-06</wgt>
  <wgt id="12">2.8251e-06</wgt>
  <wgt id="13">2.8251e-06</wgt>
  <wgt id="14">2.83552e-06</wgt>
  <wgt id="15">2.81653e-06</wgt>
  <wgt id="16">2.81092e-06</wgt>
  <wgt id="17">2.84103e-06</wgt>
  <wgt id="18">2.81782e-06</wgt>
  <wgt id="19">2.83592e-06</wgt>
  <wgt id="20">2.82535e-06</wgt>
  <wgt id="21">2.82495e-06</wgt>
  <wgt id="22">2.82589e-06</wgt>
  <wgt id="23">2.82372e-06</wgt>
  <wgt id="24">2.82736e-06</wgt>
  <wgt id="25">2.82346e-06</wgt>
  <wgt id="26">2.83067e-06</wgt>
  <wgt id="27">2.81742e-06</wgt>
  <wgt id="28">2.83365e-06</wgt>
  <wgt id="29">2.82171e-06</wgt>
  <wgt id="30">2.7662e-06</wgt>
  <wgt id="31">2.89974e-06</wgt>
  <wgt id="32">2.82675e-06</wgt>
  <wgt id="33">2.82386e-06</wgt>
  <wgt id="34">2.88912e-06</wgt>
  <wgt id="35">2.71695e-06</wgt>
  <wgt id="36">2.76823e-06</wgt>
  <wgt id="37">2.86303e-06</wgt>
  <wgt id="38">2.78323e-06</wgt>
  <wgt id="39">2.84604e-06</wgt>
  <wgt id="40">2.82001e-06</wgt>
  <wgt id="41">2.83464e-06</wgt>
  <wgt id="42">2.81142e-06</wgt>
  <wgt id="43">2.8516e-06</wgt>
  <wgt id="44">2.81458e-06</wgt>
  <wgt id="45">2.82952e-06</wgt>
  <wgt id="46">2.83315e-06</wgt>
  <wgt id="47">2.82027e-06</wgt>
  <wgt id="48">2.86189e-06</wgt>
  <wgt id="49">2.80992e-06</wgt>
  <wgt id="50">2.80212e-06</wgt>
  <wgt id="51">2.88442e-06</wgt>
  <wgt id="52">2.84405e-06</wgt>
  <wgt id="53">2.82051e-06</wgt>
</rwgt>
</event>
<event>
 10      0 +2.8251000e-06 1.95347500e+02 7.54677100e-03 1.08002100e-01
        2 -1    0    0  502    0 +0.00000000000e+00 +0.00000000000e+00 +1.96570125040e+02  1.96570125040e+02  0.00000000000e+00 0.0000e+00 -1.0000e+00
        4 -1    0    0  501    0 +0.00000000000e+00 +0.00000000000e+00 -1.69009366350e+03  1.69009366350e+03  0.00000000000e+00 0.0000e+00 -1.0000e+00
       24  2    1    2    0    0 +6.80546261315e+01 +3.96704211989e+01 -1.42014731761e+02  1.80969951549e+02  7.98546483945e+01 0.0000e+00 0.0000e+00
        4  1    3    3  503    0 +4.87636343990e+01 +5.34462360409e+01 -1.39483233313e+02  1.57130406230e+02  0.00000000000e+00 0.0000e+00 -1.0000e+00
       -3  1    3    3    0  503 +1.92909917326e+01 -1.37758148420e+01 -2.53149844881e+00  2.38395453183e+01  0.00000000000e+00 0.0000e+00 1.0000e+00
       24  2    1    2    0    0 +2.25407892936e+01 -5.19737745593e+01 -1.42425612358e+02  1.75669839794e+02  8.58223580061e+01 0.0000e+00 0.0000e+00
        2  1    6    6  504    0 +5.48578941647e+00 -7.35594732396e+01 -8.91449325303e+01  1.15706132010e+02  0.00000000000e+00 0.0000e+00 -1.0000e+00
       -1  1    6    6    0  504 +1.70549998771e+01 +2.15856986803e+01 -5.32806798281e+01  5.99637077845e+01  0.00000000000e+00 0.0000e+00 1.0000e+00
        1  1    1    2  501    0 -3.73646421735e+02 +3.42293637053e+01 -1.18742998875e+03  1.24530047619e+03  0.00000000000e+00 0.0000e+00 -1.0000e+00
        3  1    1    2  502    0 +2.83051006310e+02 -2.19260103449e+01 -2.16532055902e+01  2.84723521008e+02  0.00000000000e+00 0.0000e+00 -1.0000e+00
#  0.1300000e+05  0.1300000e+05  0.1300000e+05  0.1300000e+05
<mgrwt>
<rscale>  2 0.19020359e+03</rscale>
<asrwt>0</asrwt>
<pdfrwt beam="1">  1        2 0.30241558e-01 0.11203132e+03</pdfrwt>
<pdfrwt beam="2">  1        4 0.26001441e+00 0.10068914e+03</pdfrwt>
<totfact> 0.40963751e-02</totfact>
</mgrwt>
<clustering>
<clus scale="  100.689">  2  4  1 -1</clus>
<clus scale="  112.031">  1  3  2 -1</clus>
<clus scale="  340.625">  1  5  2 -1</clus>
<clus scale="  340.625">  1  3  2 -1</clus>
</clustering>
<rwgt>
  <wgt id="1">4.34777e-06</wgt>
  <wgt id="2">2.84216e-06</wgt>
  <wgt id="3">2.00727e-06</wgt>
  <wgt id="4">4.32168e-06</wgt>
  <wgt id="5">2.8251e-06</wgt>
  <wgt id="6">1.99522e-06</wgt>
  <wgt id="7">4.09852e-06</wgt>
  <wgt id="8">2.67922e-06</wgt>
  <wgt id="9">1.8922e-06</wgt>
  <wgt id="10">2.8251e-06</wgt>
  <wgt id="11">2.8251e-06</wgt>
  <wgt id="12">2.8251e-06</wgt>
  <wgt id="13">2.8251e-06</wgt>
  <wgt id="14">2.8371e-06</wgt>
  <wgt id="15">2.81529e-06</wgt>
  <wgt id="16">2.8326e-06</wgt>
  <wgt id="17">2.81671e-06</wgt>
  <wgt id="18">2.82251e-06</wgt>
  <wgt id="19">2.82889e-06</wgt>
  <wgt id="20">2.82475e-06</wgt>
  <wgt id="21">2.82537e-06</wgt>
  <wgt id="22">2.82149e-06</wgt>
  <wgt id="23">2.8303e-06</wgt>
  <wgt id="24">2.80366e-06</wgt>
  <wgt id="25">2.8382e-06</wgt>
  <wgt id="26">2.8309e-06</wgt>
  <wgt id="27">2.81731e-06</wgt>
  <wgt id="28">2.82455e-06</wgt>
  <wgt id="29">2.82522e-06</wgt>
  <wgt id="30">2.73378e-06</wgt>
  <wgt id="31">2.94266e-06</wgt>
  <wgt id="32">2.83772e-06</wgt>
  <wgt id="33">2.81352e-06</wgt>
  <wgt id="34">2.98444e-06</wgt>
  <wgt id="35">2.56542e-06</wgt>
  <wgt id="36">2.70291e-06</wgt>
  <wgt id="37">2.90496e-06</wgt>
  <wgt id="38">2.75471e-06</wgt>
  <wgt id="39">2.85922e-06</wgt>
  <wgt id="40">2.79555e-06</wgt>
  <wgt id="41">2.86244e-06</wgt>
  <wgt id="42">2.78915e-06</wgt>
  <wgt id="43">2.88151e-06</wgt>
  <wgt id="44">2.80207e-06</wgt>
  <wgt id="45">2.83437e-06</wgt>
  <wgt id="46">2.8389e-06</wgt>
  <wgt id="47">2.81715e-06</wgt>
  <wgt id="48">2.856e-06</wgt>
  <wgt id="49">2.80442e-06</wgt>
  <wgt id="50">2.68766e-06</wgt>
  <wgt id="51">3.02278e-06</wgt>
  <wgt id="52">2.83527e-06</wgt>
  <wgt id="53">2.8223e-06</wgt>
</rwgt>
</event>
<event>
 10      0 +2.8251000e-06 1.57126100e+02 7.54677100e-03 1.13285000e-01
        2 -1    0    0  502    0 +0.00000000000e+00 +0.00000000000e+00 +5.39738377640e+02  5.39738377640e+02  0.00000000000e+00 0.0000e+00 -1.0000e+00
        2 -1    0    0  501    0 +0.00000000000e+00 +0.00000000000e+00 -3.95978372620e+03  3.95978372620e+03  0.00000000000e+00 0.0000e+00 -1.0000e+00
       24  2    1    2    0    0 +1.96584619815e+01 -2.90144974186e+01 -1.93626431307e+03  1.93797684639e+03  7.35287079443e+01 0.0000e+00 0.0000e+00
       16  1    3    3    0    0 +1.37219299589e+01 +2.12713117011e+01 -1.02036370734e+03  1.02067764516e+03  0.00000000000e+00 0.0000e+00 -1.0000e+00
      -15  1    3    3    0    0 +5.93653202268e+00 -5.02858091197e+01 -9.15900605730e+02  9.17299201236e+02  1.77700000000e+00 0.0000e+00 1.0000e+00
       24  2    1    2    0    0 -1.15350214694e+02 -6.98643708142e+01 +4.06716766120e+02  4.36136004367e+02  8.12981188151e+01 0.0000e+00 0.0000e+00
       14  1    6    6    0    0 -1.16143679709e+02 -4.04818330773e+01 +3.64273496816e+02  3.84477975479e+02  0.00000000000e+00 0.0000e+00 -1.0000e+00
      -13  1    6    6    0    0 +7.93465014916e-01 -2.93825377369e+01 +4.24432693041e+01  5.16580288884e+01  0.00000000000e+00 0.0000e+00 1.0000e+00
        1  1    1    2  501    0 +1.90599402714e+02 +2.92285443138e+01 -1.97252471495e+03  1.98192739302e+03  0.00000000000e+00 0.0000e+00 -1.0000e+00
        1  1    1    2  502    0 -9.49076500018e+01 +6.96503239189e+01 +8.20269133481e+01  1.43481860053e+02  0.00000000000e+00 0.0000e+00 -1.0000e+00
#  0.1300000e+05  0.1300000e+05  0.1300000e+05  0.1300000e+05
<mgrwt>
<rscale>  2 0.13554797e+03</rscale>
<asrwt>0</asrwt>
<pdfrwt beam="1">  1        2 0.83036673e-01 0.15712611e+03</pdfrwt>
<pdfrwt beam="2">  1        2 0.60919750e+00 0.87021580e+02</pdfrwt>
<totfact> 0.64213700e-02</totfact>
</mgrwt>
<clustering>
<clus scale="   87.022">  2  3  1 -1</clus>
<clus scale="  117.549">  2  6  1 -1</clus>
<clus scale="  134.987">  2  5  1 -1</clus>
<clus scale="  157.126">  1  3  2 -1</clus>
</clustering>
<rwgt>
  <wgt id="1">6.35335e-06</wgt>
  <wgt id="2">4.05206e-06</wgt>
  <wgt id="3">2.81599e-06</wgt>
  <wgt id="4">4.42957e-06</wgt>
  <wgt id="5">2.8251e-06</wgt>
  <wgt id="6">1.96331e-06</wgt>
  <wgt id="7">3.2862e-06</wgt>
  <wgt id="8">2.09588e-06</wgt>
  <wgt id="9">1.45654e-06</wgt>
  <wgt id="10">2.8251e-06</wgt>
  <wgt id="11">2.8251e-06</wgt>
  <wgt id="12">2.8251e-06</wgt>
  <wgt id="13">2.8251e-06</wgt>
  <wgt id="14">2.82865e-06</wgt>
  <wgt id="15">2.82217e-06</wgt>
  <wgt id="16">2.80648e-06</wgt>
  <wgt id="17">2.84595e-06</wgt>
  <wgt id="18">2.80827e-06</wgt>
  <wgt id="19">2.85016e-06</wgt>
  <wgt id="20">2.81362e-06</wgt>
  <wgt id="21">2.83281e-06</wgt>
  <wgt id="22">2.83469e-06</wgt>
  <wgt id="23">2.81141e-06</wgt>
  <wgt id="24">2.87821e-06</wgt>
  <wgt id="25">2.79259e-06</wgt>
  <wgt id="26">2.82336e-06</wgt>
  <wgt id="27">2.82752e-06</wgt>
  <wgt id="28">2.82237e-06</wgt>
  <wgt id="29">2.82554e-06</wgt>
  <wgt id="30">2.82266e-06</wgt>
  <wgt id="31">2.82804e-06</wgt>
  <wgt id="32">2.81049e-06</wgt>
  <wgt id="33">2.83915e-06</wgt>
  <wgt id="34">2.79104e-06</wgt>
  <wgt id="35">2.88728e-06</wgt>
  <wgt id="36">2.85719e-06</wgt>
  <wgt id="37">2.80716e-06</wgt>
  <wgt id="38">2.81578e-06</wgt>
  <wgt id="39">2.82965e-06</wgt>
  <wgt id="40">2.85159e-06</wgt>
  <wgt id="41">2.79874e-06</wgt>
  <wgt id="42">2.84263e-06</wgt>
  <wgt id="43">2.79484e-06</wgt>
  <wgt id="44">2.83771e-06</wgt>
  <wgt id="45">2.82008e-06</wgt>
  <wgt id="46">2.82702e-06</wgt>
  <wgt id="47">2.82422e-06</wgt>
  <wgt id="48">2.80793e-06</wgt>
  <wgt id="49">2.84145e-06</wgt>
  <wgt id="50">2.80849e-06</wgt>
  <wgt id="51">2.84776e-06</wgt>
  <wgt id="52">2.82576e-06</wgt>
  <wgt id="53">2.82542e-06</wgt>
</rwgt>
</event>
<event>
 10      0 +2.8251000e-06 1.35051200e+02 7.54677100e-03 1.14146800e-01
        2 -1    0    0  501    0 +0.00000000000e+00 +0.00000000000e+00 +8.81764182460e+01  8.81764182460e+01  0.00000000000e+00 0.0000e+00 -1.0000e+00
        2 -1    0    0  502    0 +0.00000000000e+00 +0.00000000000e+00 -1.51767652590e+03  1.51767652590e+03  0.00000000000e+00 0.0000e+00 -1.0000e+00
       24  2    1    2    0    0 -5.77634091661e+01 -2.61148108572e+01 -6.85813440946e+02  6.91949855336e+02  6.66027907327e+01 0.0000e+00 0.0000e+00
        4  1    3    3  503    0 -4.24237237272e+01 -4.86288531684e+01 -4.62371401012e+02  4.66853135546e+02  0.00000000000e+00 0.0000e+00 -1.0000e+00
       -3  1    3    3    0  503 -1.53396854389e+01 +2.25140423112e+01 -2.23442039934e+02  2.25096719791e+02  0.00000000000e+00 0.0000e+00 1.0000e+00
       24  2    1    2    0    0 -2.03151542470e+01 -6.08024335074e+00 -3.52228632173e+00  8.31128463372e+01  8.02848919415e+01 0.0000e+00 0.0000e+00
       12  1    6    6    0    0 +2.73193635166e+00 -3.72407169480e+01 -1.83623092853e+01  4.16114032126e+01  0.00000000000e+00 0.0000e+00 -1.0000e+00
      -11  1    6    6    0    0 -2.30470905986e+01 +3.11604735973e+01 +1.48400229636e+01  4.15014431246e+01  0.00000000000e+00 0.0000e+00 1.0000e+00
        1  1    1    2  501    0 +1.55733819442e+02 +1.62742426775e+02 -4.54199378154e+02  5.06986385524e+02  0.00000000000e+00 0.0000e+00 -1.0000e+00
        1  1    1    2  502    0 -7.76552560290e+01 -1.30547372567e+02 -2.85965002232e+02  3.23803856949e+02  0.00000000000e+00 0.0000e+00 -1.0000e+00
#  0.1300000e+05  0.1300000e+05  0.1300000e+05  0.1300000e+05
<mgrwt>
<rscale>  2 0.12867156e+03</rscale>
<asrwt>0</asrwt>
<pdfrwt beam="1">  1        2 0.13565603e-01 0.83140058e+02</pdfrwt>
<pdfrwt beam="2">  1        2 0.23348870e+00 0.10089604e+03</pdfrwt>
<totfact> 0.12499650e+01</totfact>
</mgrwt>
<clustering>
<clus scale="   83.140">  1  4  2 -1</clus>
<clus scale="  100.896">  2  3  1 -1</clus>
<clus scale="  180.769">  2  5  1 -1</clus>
<clus scale="  180.769">  1  3  2 -1</clus>
</clustering>
<rwgt>
  <wgt id="1">4.55565e-06</wgt>
  <wgt id="2">2.8941e-06</wgt>
  <wgt id="3">2.00591e-06</wgt>
  <wgt id="4">4.44703e-06</wgt>
  <wgt id="5">2.8251e-06</wgt>
  <wgt id="6">1.95809e-06</wgt>
  <wgt id="7">4.26251e-06</wgt>
  <wgt id="8">2.70788e-06</wgt>
  <wgt id="9">1.87684e-06</wgt>
  <wgt id="10">2.8251e-06</wgt>
  <wgt id="11">2.8251e-06</wgt>
  <wgt id="12">2.8251e-06</wgt>
  <wgt id="13">2.8251e-06</wgt>
  <wgt id="14">2.8286e-06</wgt>
  <wgt id="15">2.82216e-06</wgt>
  <wgt id="16">2.82438e-06</wgt>
  <wgt id="17">2.82571e-06</wgt>
  <wgt id="18">2.81481e-06</wgt>
  <wgt id="19">2.84032e-06</wgt>
  <wgt id="20">2.82242e-06</wgt>
  <wgt id="21">2.82686e-06</wgt>
  <wgt id="22">2.83039e-06</wgt>
  <wgt id="23">2.81754e-06</wgt>
  <wgt id="24">2.85367e-06</wgt>
  <wgt id="25">2.80746e-06</wgt>
  <wgt id="26">2.82656e-06</wgt>
  <wgt id="27">2.82307e-06</wgt>
  <wgt id="28">2.84914e-06</wgt>
  <wgt id="29">2.81621e-06</wgt>
  <wgt id="30">2.83703e-06</wgt>
  <wgt id="31">2.80827e-06</wgt>
  <wgt id="32">2.82746e-06</wgt>
  <wgt id="33">2.82278e-06</wgt>
  <wgt id="34">2.79037e-06</wgt>
  <wgt id="35">2.8877e-06</wgt>
  <wgt id="36">2.83346e-06</wgt>
  <wgt id="37">2.81973e-06</wgt>
  <wgt id="38">2.82015e-06</wgt>
  <wgt id="39">2.82764e-06</wgt>
  <wgt id="40">2.82879e-06</wgt>
  <wgt id="41">2.82251e-06</wgt>
  <wgt id="42">2.83963e-06</wgt>
  <wgt id="43">2.79667e-06</wgt>
  <wgt id="44">2.83013e-06</wgt>
  <wgt id="45">2.8233e-06</wgt>
  <wgt id="46">2.81899e-06</wgt>
  <wgt id="47">2.82908e-06</wgt>
  <wgt id="48">2.81361e-06</wgt>
  <wgt id="49">2.83268e-06</wgt>
  <wgt id="50">2.81183e-06</wgt>
  <wgt id="51">2.83011e-06</wgt>
  <wgt id="52">2.83214e-06</wgt>
  <wgt id="53">2.82328e-06</wgt>
</rwgt>
</event>
<event>
 11      0 +2.8251000e-06 1.34785300e+03 7.54677100e-03 9.01653300e-02
       -1 -1    0    0    0  501 +0.00000000000e+00 +0.00000000000e+00 +4.16039750250e+02  4.16039750250e+02  0.00000000000e+00 0.0000e+00 1.0000e+00
        2 -1    0    0  502    0 +0.00000000000e+00 +0.00000000000e+00 -2.81873246970e+03  2.81873246970e+03  0.00000000000e+00 0.0000e+00 -1.0000e+00
       24  2    1    2    0    0 -2.44040333556e+00 -1.15175770482e+01 -2.61184886225e+03  2.61306351326e+03  7.87898148672e+01 0.0000e+00 0.0000e+00
        2  1    3    3  504    0 -3.63127445582e+01 -1.35501759144e+01 -8.44531867513e+02  8.45420781581e+02  0.00000000000e+00 0.0000e+00 -1.0000e+00
       -1  1    3    3    0  504 +3.38723412226e+01 +2.03259886623e+00 -1.76731699474e+03  1.76764273167e+03  0.00000000000e+00 0.0000e+00 1.0000e+00
       24  2    1    2    0    0 -1.16868878735e+02 -2.00052687940e+01 +2.03222237608e+02  2.48966890522e+02  8.14044785095e+01 0.0000e+00 0.0000e+00
       12  1    6    6    0    0 -7.20335740388e+01 -2.76513192869e+01 +5.72642776624e+01  9.60865690058e+01  0.00000000000e+00 0.0000e+00 -1.0000e+00
      -11  1    6    6    0    0 -4.48353046960e+01 +7.64605049286e+00 +1.45957959946e+02  1.52880321516e+02  0.00000000000e+00 0.0000e+00 1.0000e+00
       21  1    1    2  503  501 -3.80104519424e+01 -7.47576601418e+01 -5.77956672209e+01  1.01852056220e+02  0.00000000000e+00 0.0000e+00 -1.0000e+00
        1  1    1    2  502    0 +4.85801953469e+01 +5.08141095865e+00 -6.01387320031e+01  7.74759524254e+01  0.00000000000e+00 0.0000e+00 -1.0000e+00
       -2  1    1    2    0  503 +1.08739538666e+02 +1.01199095025e+02 +1.23868304415e+02  1.93413807527e+02  0.00000000000e+00 0.0000e+00 1.0000e+00
#  0.1300000e+05  0.1300000e+05  0.8386598e+02  0.1300000e+05  0.1176658e+03
<mgrwt>
<rscale>  2 0.80608172e+03</rscale>
<asrwt>  1 0.83865978e+02</asrwt>
<pdfrwt beam="1">  1        2 0.43365115e+00 0.13478528e+04</pdfrwt>
<pdfrwt beam="2">  2       -1       -1 0.64006115e-01 0.58804569e-01 0.83865978e+02 0.13478528e+04</pdfrwt>
<totfact> 0.84303618e-03</totfact>
</mgrwt>
<clustering>
<clus scale="   48.706">  3  6 -1 -1</clus>
<clus scale="   83.866">  1  5  2 -1</clus>
<clus scale="  117.666">  3  7 -1 -1</clus>
<clus scale="  172.420">  1  4  2 -1</clus>
<clus scale=" 1347.853">  2  3  1 -1</clus>
</clustering>
<rwgt>
  <wgt id="1">4.85934e-06</wgt>
  <wgt id="2">3.44084e-06</wgt>
  <wgt id="3">2.56753e-06</wgt>
  <wgt id="4">3.98976e-06</wgt>
  <wgt id="5">2.8251e-06</wgt>
  <wgt id="6">2.10807e-06</wgt>
  <wgt id="7">3.34475e-06</wgt>
  <wgt id="8">2.36838e-06</wgt>
  <wgt id="9">1.76727e-06</wgt>
  <wgt id="10">3.60921e-06</wgt>
  <wgt id="11">2.8251e-06</wgt>
  <wgt id="12">2.32505e-06</wgt>
  <wgt id="13">2.8251e-06</wgt>
  <wgt id="14">2.83019e-06</wgt>
  <wgt id="15">2.82073e-06</wgt>
  <wgt id="16">2.82568e-06</wgt>
  <wgt id="17">2.8244e-06</wgt>
  <wgt id="18">2.8079e-06</wgt>
  <wgt id="19">2.851e-06</wgt>
  <wgt id="20">2.8473e-06</wgt>
  <wgt id="21">2.81009e-06</wgt>
  <wgt id="22">2.83855e-06</wgt>
  <wgt id="23">2.80615e-06</wgt>
  <wgt id="24">2.8951e-06</wgt>
  <wgt id="25">2.78237e-06</wgt>
  <wgt id="26">2.82597e-06</wgt>
  <wgt id="27">2.8238e-06</wgt>
  <wgt id="28">2.83828e-06</wgt>
  <wgt id="29">2.82022e-06</wgt>
  <wgt id="30">2.81647e-06</wgt>
  <wgt id="31">2.83546e-06</wgt>
  <wgt id="32">2.83146e-06</wgt>
  <wgt id="33">2.81911e-06</wgt>
  <wgt id="34">2.80785e-06</wgt>
  <wgt id="35">2.85644e-06</wgt>
  <wgt id="36">2.83343e-06</wgt>
  <wgt id="37">2.81723e-06</wgt>
  <wgt id="38">2.85639e-06</wgt>
  <wgt id="39">2.81139e-06</wgt>
  <wgt id="40">2.82963e-06</wgt>
  <wgt id="41">2.82093e-06</wgt>
  <wgt id="42">2.84012e-06</wgt>
  <wgt id="43">2.78986e-06</wgt>
  <wgt id="44">2.83859e-06</wgt>
  <wgt id="45">2.82006e-06</wgt>
  <wgt id="46">2.82696e-06</wgt>
  <wgt id="47">2.82497e-06</wgt>
  <wgt id="48">2.83388e-06</wgt>
  <wgt id="49">2.82666e-06</wgt>
  <wgt id="50">2.82886e-06</wgt>
  <wgt id="51">2.82946e-06</wgt>
  <wgt id="52">2.82616e-06</wgt>
  <wgt id="53">2.82539e-06</wgt>
</rwgt>
</event>
<event>
 12      0 +2.8251000e-06 1.74285000e+02 7.54677100e-03 1.10714600e-01
        2 -1    0    0  504    0 +0.00000000000e+00 +0.00000000000e+00 +1.09402922560e+03  1.09402922560e+03  0.00000000000e+00 0.0000e+00 -1.0000e+00
        2 -1    0    0  503    0 +0.00000000000e+00 +0.00000000000e+00 -2.44040769570e+03  2.44040769570e+03  0.00000000000e+00 0.0000e+00 -1.0000e+00
       24  2    1    2    0    0 -1.50072304832e+00 -7.00778902436e+01 -1.92558440694e+03  1.92855447117e+03  8.08324017368e+01 0.0000e+00 0.0000e+00
        2  1    3    3  505    0 +2.01759711444e+01 -6.65860863250e+01 -1.77650372353e+03  1.77786564634e+03  0.00000000000e+00 0.0000e+00 -1.0000e+00
       -1  1    3    3    0  505 -2.16766941927e+01 -3.49180391854e+00 -1.49080683405e+02  1.50688824836e+02  0.00000000000e+00 0.0000e+00 1.0000e+00
       24  2    1    2    0    0 +1.29038905651e+02 +2.42160349490e+01 +2.17166386585e+02  2.66033639330e+02  7.98448637817e+01 0.0000e+00 0.0000e+00
        2  1    6    6  506    0 +2.15090272006e+01 -8.79516232928e+00 +1.03662630863e+02  1.06235277422e+02  0.00000000000e+00 0.0000e+00 -1.0000e+00
       -1  1    6    6    0  506 +1.07529878451e+02 +3.30111972783e+01 +1.13503755722e+02  1.59798361908e+02  0.00000000000e+00 0.0000e+00 1.0000e+00
       21  1    1    2  503  502 +9.07864040967e+00 -1.23908261465e+02 -4.26787156346e+02  4.44503043626e+02  0.00000000000e+00 0.0000e+00 -1.0000e+00
       21  1    1    2  504  501 +1.23200616349e+00 +1.14783778078e+02 +2.77204364872e+02  3.00031820735e+02  0.00000000000e+00 0.0000e+00 -1.0000e+00
        1  1    1    2  501    0 +6.30489646904e+01 +6.65337765694e+01 +2.42742767072e+02  2.59472477035e+02  0.00000000000e+00 0.0000e+00 -1.0000e+00
        1  1    1    2  502    0 -2.00897793867e+02 -1.15474378885e+01 +2.68879574655e+02  3.35841469400e+02  0.00000000000e+00 0.0000e+00 -1.0000e+00
#  0.1300000e+05  0.1300000e+05  0.1832507e+03  0.6741742e+02  0.1300000e+05  0.1300000e+05
<mgrwt>
<rscale>  3 0.15918897e+03</rscale>
<asrwt>  1 0.67417418e+02</asrwt>
<pdfrwt beam="1">  1        2 0.16831219e+00 0.15327608e+03</pdfrwt>
<pdfrwt beam="2">  1        2 0.37544734e+00 0.10668078e+03</pdfrwt>
<totfact> 0.31454236e-03</totfact>
</mgrwt>
<clustering>
<clus scale="   67.417">  6  7 -1 -1</clus>
<clus scale="  106.681">  2  3  1 -1</clus>
<clus scale="  153.276">  1  4  2 -1</clus>
<clus scale="  155.284">  1  8  2 -1</clus>
<clus scale="  183.251">  2  5  1 -1</clus>
<clus scale="  198.174">  1  3  2 -1</clus>
</clustering>
<rwgt>
  <wgt id="1">7.21942e-06</wgt>
  <wgt id="2">3.74416e-06</wgt>
  <wgt id="3">2.19468e-06</wgt>
  <wgt id="4">5.4473e-06</wgt>
  <wgt id="5">2.8251e-06</wgt>
  <wgt id="6">1.65596e-06</wgt>
  <wgt id="7">4.29666e-06</wgt>
  <wgt id="8">2.22835e-06</wgt>
  <wgt id="9">1.30617e-06</wgt>
  <wgt id="10">3.64724e-06</wgt>
  <wgt id="11">2.8251e-06</wgt>
  <wgt id="12">2.31002e-06</wgt>
  <wgt id="13">2.8251e-06</wgt>
  <wgt id="14">2.82837e-06</wgt>
  <wgt id="15">2.82255e-06</wgt>
  <wgt id="16">2.80373e-06</wgt>
  <wgt id="17">2.84903e-06</wgt>
  <wgt id="18">2.80967e-06</wgt>
  <wgt id="19">2.84819e-06</wgt>
  <wgt id="20">2.81789e-06</wgt>
  <wgt id="21">2.82997e-06</wgt>
  <wgt id="22">2.83453e-06</wgt>
  <wgt id="23">2.8117e-06</wgt>
  <wgt id="24">2.87618e-06</wgt>
  <wgt id="25">2.79382e-06</wgt>
  <wgt id="26">2.8257e-06</wgt>
  <wgt id="27">2.82427e-06</wgt>
  <wgt id="28">2.86864e-06</wgt>
  <wgt id="29">2.80923e-06</wgt>
  <wgt id="30">2.83021e-06</wgt>
  <wgt id="31">2.81882e-06</wgt>
  <wgt id="32">2.82194e-06</wgt>
  <wgt id="33">2.82821e-06</wgt>
  <wgt id="34">2.78032e-06</wgt>
  <wgt id="35">2.9082e-06</wgt>
  <wgt id="36">2.84688e-06</wgt>
  <wgt id="37">2.8137e-06</wgt>
  <wgt id="38">2.81449e-06</wgt>
  <wgt id="39">2.83107e-06</wgt>
  <wgt id="40">2.83543e-06</wgt>
  <wgt id="41">2.81485e-06</wgt>
  <wgt id="42">2.84951e-06</wgt>
  <wgt id="43">2.78698e-06</wgt>
  <wgt id="44">2.83275e-06</wgt>
  <wgt id="45">2.82239e-06</wgt>
  <wgt id="46">2.82328e-06</wgt>
  <wgt id="47">2.82626e-06</wgt>
  <wgt id="48">2.83289e-06</wgt>
  <wgt id="49">2.82777e-06</wgt>
  <wgt id="50">2.81818e-06</wgt>
  <wgt id="51">2.83703e-06</wgt>
  <wgt id="52">2.84343e-06</wgt>
  <wgt id="53">2.82074e-06</wgt>
</rwgt>
</event>
<event>
 11      0 +2.8251000e-06 4.39174900e+02 7.54677100e-03 9.84458300e-02
        2 -1    0    0  501    0 +0.00000000000e+00 +0.00000000000e+00 +3.25185608790e+02  3.25185608790e+02  0.00000000000e+00 0.0000e+00 -1.0000e+00
        2 -1    0    0  503    0 +0.00000000000e+00 +0.00000000000e+00 -1.07225933750e+03  1.07225933750e+03  0.00000000000e+00 0.0000e+00 -1.0000e+00
       24  2    1    2    0    0 -4.40489171628e+01 -2.66144913786e+01 -5.60919448183e+02  5.69183146934e+02  8.17935764527e+01 0.0000e+00 0.0000e+00
        4  1    3    3  504    0 -6.21345291774e+01 +5.78102956874e-01 -3.11709003850e+02  3.17842000057e+02  0.00000000000e+00 0.0000e+00 -1.0000e+00
       -3  1    3    3    0  504 +1.80856120145e+01 -2.71925943354e+01 -2.49210444333e+02  2.51341146877e+02  0.00000000000e+00 0.0000e+00 1.0000e+00
       24  2    1    2    0    0 -4.36314531987e+01 -6.62400904395e+01 +2.71278677685e+02  2.94124797390e+02  8.13991534578e+01 0.0000e+00 0.0000e+00
        2  1    6    6  505    0 -1.88888728728e+01 -8.21125285171e+01 +2.00565355475e+02  2.17544750970e+02  0.00000000000e+00 0.0000e+00 -1.0000e+00
       -1  1    6    6    0  505 -2.47425803259e+01 +1.58724380776e+01 +7.07133222096e+01  7.65800464196e+01  0.00000000000e+00 0.0000e+00 1.0000e+00
       21  1    1    2  503  502 +3.65733029572e+01 +4.34071595757e+01 -2.71965777493e+02  2.77825794553e+02  0.00000000000e+00 0.0000e+00 -1.0000e+00
        1  1    1    2  501    0 +7.25274390450e+01 -3.40710298018e+01 -4.61485183378e+01  9.24702667399e+01  0.00000000000e+00 0.0000e+00 -1.0000e+00
        1  1    1    2  502    0 -2.14203716406e+01 +8.35184520441e+01 -1.39318662381e+02  1.63840940673e+02  0.00000000000e+00 0.0000e+00 -1.0000e+00
#  0.1300000e+05  0.1300000e+05  0.5676080e+02  0.1300000e+05  0.1300000e+05
<mgrwt>
<rscale>  2 0.38589322e+03</rscale>
<asrwt>  1 0.56760796e+02</asrwt>
<pdfrwt beam="1">  1        2 0.50028555e-01 0.43917490e+03</pdfrwt>
<pdfrwt beam="2">  2        2        2 0.16496298e+00 0.12118496e+00 0.56760796e+02 0.43917490e+03</pdfrwt>
<totfact> 0.54356817e-01</totfact>
</mgrwt>
<clustering>
<clus scale="   56.761">  2  5  1 -1</clus>
<clus scale="   81.703">  3  6 -1 -1</clus>
<clus scale="   93.536">  4  7 -1 -1</clus>
<clus scale="  261.792">  2  3  1 -1</clus>
<clus scale="  439.175">  1  3  2 -1</clus>
</clustering>
<rwgt>
  <wgt id="1">4.34554e-06</wgt>
  <wgt id="2">2.96693e-06</wgt>
  <wgt id="3">2.15778e-06</wgt>
  <wgt id="4">4.13781e-06</wgt>
  <wgt id="5">2.8251e-06</wgt>
  <wgt id="6">2.05463e-06</wgt>
  <wgt id="7">3.93249e-06</wgt>
  <wgt id="8">2.68492e-06</wgt>
  <wgt id="9">1.95268e-06</wgt>
  <wgt id="10">3.67966e-06</wgt>
  <wgt id="11">2.8251e-06</wgt>
  <wgt id="12">2.29765e-06</wgt>
  <wgt id="13">2.8251e-06</wgt>
  <wgt id="14">2.82826e-06</wgt>
  <wgt id="15">2.8225e-06</wgt>
  <wgt id="16">2.82071e-06</wgt>
  <wgt id="17">2.82991e-06</wgt>
  <wgt id="18">2.81293e-06</wgt>
  <wgt id="19">2.84322e-06</wgt>
  <wgt id="20">2.81429e-06</wgt>
  <wgt id="21">2.83244e-06</wgt>
  <wgt id="22">2.83152e-06</wgt>
  <wgt id="23">2.81602e-06</wgt>
  <wgt id="24">2.86113e-06</wgt>
  <wgt id="25">2.80291e-06</wgt>
  <wgt id="26">2.82419e-06</wgt>
  <wgt id="27">2.82646e-06</wgt>
  <wgt id="28">2.86684e-06</wgt>
  <wgt id="29">2.81e-06</wgt>
  <wgt id="30">2.83025e-06</wgt>
  <wgt id="31">2.81848e-06</wgt>
  <wgt id="32">2.82965e-06</wgt>
  <wgt id="33">2.82077e-06</wgt>
  <wgt id="34">2.79202e-06</wgt>
  <wgt id="35">2.88596e-06</wgt>
  <wgt id="36">2.83998e-06</wgt>
  <wgt id="37">2.81728e-06</wgt>
  <wgt id="38">2.81497e-06</wgt>
  <wgt id="39">2.83014e-06</wgt>
  <wgt id="40">2.82573e-06</wgt>
  <wgt id="41">2.8249e-06</wgt>
  <wgt id="42">2.84625e-06</wgt>
  <wgt id="43">2.78738e-06</wgt>
  <wgt id="44">2.83415e-06</wgt>
  <wgt id="45">2.82171e-06</wgt>
  <wgt id="46">2.82449e-06</wgt>
  <wgt id="47">2.82594e-06</wgt>
  <wgt id="48">2.80373e-06</wgt>
  <wgt id="49">2.83711e-06</wgt>
  <wgt id="50">2.81518e-06</wgt>
  <wgt id="51">2.83735e-06</wgt>
  <wgt id="52">2.8311e-06</wgt>
  <wgt id="53">2.82348e-06</wgt>
</rwgt>
</event>
<event>
 10      0 +2.8251000e-06 2.94709600e+02 7.54677100e-03 1.05844400e-01
       -3 -1    0    0    0  501 +0.00000000000e+00 +0.00000000000e+00 +7.83243606810e+01  7.83243606810e+01  0.00000000000e+00 0.0000e+00 1.0000e+00
        2 -1    0    0  501    0 +0.00000000000e+00 +0.00000000000e+00 -1.11888893700e+03  1.11888893700e+03  0.00000000000e+00 0.0000e+00 -1.0000e+00
       24  2    1    2    0    0 -2.69358069814e+00 +1.77477196930e+01 -2.55711912740e+01  9.03595485890e+01  8.47863507102e+01 0.0000e+00 0.0000e+00
        2  1    3    3  503    0 -2.80382824122e+01 +4.20768415235e+01 -2.16725127744e+01  5.50118503886e+01  0.00000000000e+00 0.0000e+00 -1.0000e+00
       -1  1    3    3    0  503 +2.53447017141e+01 -2.43291218305e+01 -3.89867849962e+00  3.53476982003e+01  0.00000000000e+00 0.0000e+00 1.0000e+00
       24  2    1    2    0    0 -3.30924198763e+01 +3.50450749761e+01 -3.79314289960e+02  3.91300103100e+02  8.31455024947e+01 0.0000e+00 0.0000e+00
       14  1    6    6    0    0 +1.45767140084e+01 +4.48162725807e+01 -2.02564108673e+02  2.07974029633e+02  0.00000000000e+00 0.0000e+00 -1.0000e+00
      -13  1    6    6    0    0 -4.76691338847e+01 -9.77119760462e+00 -1.76750181287e+02  1.83326073467e+02  0.00000000000e+00 0.0000e+00 1.0000e+00
        1  1    1    2  502    0 -4.68848475827e+01 +7.28750861073e+01 -5.16286639709e+02  5.23508224816e+02  0.00000000000e+00 0.0000e+00 -1.0000e+00
       -4  1    1    2    0  502 +8.26708481571e+01 -1.25667880776e+02 -1.19392455376e+02  1.92045421176e+02  0.00000000000e+00 0.0000e+00 1.0000e+00
#  0.1300000e+05  0.1300000e+05  0.1300000e+05  0.1300000e+05
<mgrwt>
<rscale>  2 0.22063345e+03</rscale>
<asrwt>0</asrwt>
<pdfrwt beam="1">  1        2 0.17213676e+00 0.29470956e+03</pdfrwt>
<pdfrwt beam="2">  1       -3 0.12049902e-01 0.92576926e+02</pdfrwt>
<totfact> 0.10454895e+01</totfact>
</mgrwt>
<clustering>
<clus scale="   80.542">  3  5 -1 -1</clus>
<clus scale="   92.577">  1  4  2 -1</clus>
<clus scale="  131.230">  1  6  2 -1</clus>
<clus scale="  294.710">  2  3  1 -1</clus>
</clustering>
<rwgt>
  <wgt id="1">3.97035e-06</wgt>
  <wgt id="2">2.62125e-06</wgt>
  <wgt id="3">1.86351e-06</wgt>
  <wgt id="4">4.27911e-06</wgt>
  <wgt id="5">2.8251e-06</wgt>
  <wgt id="6">2.00843e-06</wgt>
  <wgt id="7">4.38231e-06</wgt>
  <wgt id="8">2.89323e-06</wgt>
  <wgt id="9">2.05686e-06</wgt>
  <wgt id="10">2.8251e-06</wgt>
  <wgt id="11">2.8251e-06</wgt>
  <wgt id="12">2.8251e-06</wgt>
  <wgt id="13">2.8251e-06</wgt>
  <wgt id="14">2.8306e-06</wgt>
  <wgt id="15">2.82054e-06</wgt>
  <wgt id="16">2.80617e-06</wgt>
  <wgt id="17">2.84635e-06</wgt>
  <wgt id="18">2.83525e-06</wgt>
  <wgt id="19">2.80983e-06</wgt>
  <wgt id="20">2.81038e-06</wgt>
  <wgt id="21">2.83494e-06</wgt>
  <wgt id="22">2.83309e-06</wgt>
  <wgt id="23">2.81372e-06</wgt>
  <wgt id="24">2.84794e-06</wgt>
  <wgt id="25">2.81101e-06</wgt>
  <wgt id="26">2.82927e-06</wgt>
  <wgt id="27">2.81943e-06</wgt>
  <wgt id="28">2.84479e-06</wgt>
  <wgt id="29">2.8179e-06</wgt>
  <wgt id="30">2.84656e-06</wgt>
  <wgt id="31">2.79429e-06</wgt>
  <wgt id="32">2.82064e-06</wgt>
  <wgt id="33">2.82936e-06</wgt>
  <wgt id="34">2.78506e-06</wgt>
  <wgt id="35">2.89756e-06</wgt>
  <wgt id="36">2.85401e-06</wgt>
  <wgt id="37">2.80747e-06</wgt>
  <wgt id="38">2.82406e-06</wgt>
  <wgt id="39">2.82558e-06</wgt>
  <wgt id="40">2.83109e-06</wgt>
  <wgt id="41">2.82172e-06</wgt>
  <wgt id="42">2.8362e-06</wgt>
  <wgt id="43">2.80752e-06</wgt>
  <wgt id="44">2.81195e-06</wgt>
  <wgt id="45">2.83031e-06</wgt>
  <wgt id="46">2.85507e-06</wgt>
  <wgt id="47">2.8048e-06</wgt>
  <wgt id="48">2.81731e-06</wgt>
  <wgt id="49">2.83113e-06</wgt>
  <wgt id="50">2.80808e-06</wgt>
  <wgt id="51">2.82514e-06</wgt>
  <wgt id="52">2.78382e-06</wgt>
  <wgt id="53">2.83336e-06</wgt>
</rwgt>
</event>
<event>
 10      0 +2.8251000e-06 8.99714800e+01 7.54677100e-03 1.20544800e-01
       -1 -1    0    0    0  501 +0.00000000000e+00 +0.00000000000e+00 +4.14336108820e+02  4.14336108820e+02  0.00000000000e+00 0.0000e+00 1.0000e+00
       -1 -1    0    0    0  502 +0.00000000000e+00 +0.00000000000e+00 -1.20139858310e+02  1.20139858310e+02  0.00000000000e+00 0.0000e+00 1.0000e+00
       24  2    1    2    0    0 -1.84157913613e+01 +1.09860529317e+01 +2.29931989009e+02  2.44771216395e+02  8.11442793740e+01 0.0000e+00 0.0000e+00
        2  1    3    3  503    0 +2.94604282221e+01 +1.27232610105e+01 +1.30670889665e+02  1.34553630971e+02  0.00000000000e+00 0.0000e+00 -1.0000e+00
       -1  1    3    3    0  503 -4.78762195834e+01 -1.73720807883e+00 +9.92610993449e+01  1.10217585424e+02  0.00000000000e+00 0.0000e+00 1.0000e+00
       24  2    1    2    0    0 -8.97120409290e+00 +7.86140243664e+00 +2.18863065815e+01  8.48899692456e+01  8.11480887735e+01 0.0000e+00 0.0000e+00
       14  1    6    6    0    0 +2.45333752055e+01 +6.88496799606e+00 -1.91712923285e+01  3.18877364017e+01  0.00000000000e+00 0.0000e+00 -1.0000e+00
      -13  1    6    6    0    0 -3.35045792984e+01 +9.76434440587e-01 +4.10575989100e+01  5.30022328439e+01  0.00000000000e+00 0.0000e+00 1.0000e+00
       -2  1    1    2    0  501 -7.74484905197e+01 +2.59239819270e+01 -3.94419694457e+00  8.17672196682e+01  0.00000000000e+00 0.0000e+00 1.0000e+00
       -2  1    1    2    0  502 +1.04835485974e+02 -4.47714372953e+01 +4.63221518636e+01  1.23047561821e+02  0.00000000000e+00 0.0000e+00 1.0000e+00
#  0.1300000e+05  0.1300000e+05  0.1300000e+05  0.1300000e+05
<mgrwt>
<rscale>  2 0.89415721e+02</rscale>
<asrwt>0</asrwt>
<pdfrwt beam="1">  1       -1 0.63744017e-01 0.83430913e+02</pdfrwt>
<pdfrwt beam="2">  1       -1 0.18483055e-01 0.81388510e+02</pdfrwt>
<totfact> 0.94891775e+00</totfact>
</mgrwt>
<clustering>
<clus scale="   81.389">  2  4  1 -1</clus>
<clus scale="   83.431">  1  3  2 -1</clus>
<clus scale="   97.025">  1  6  2 -1</clus>
<clus scale="   97.025">  1  3  2 -1</clus>
</clustering>
<rwgt>
  <wgt id="1">4.31531e-06</wgt>
  <wgt id="2">2.65934e-06</wgt>
  <wgt id="3">1.80778e-06</wgt>
  <wgt id="4">4.58429e-06</wgt>
  <wgt id="5">2.8251e-06</wgt>
  <wgt id="6">1.92046e-06</wgt>
  <wgt id="7">4.65553e-06</wgt>
  <wgt id="8">2.869e-06</wgt>
  <wgt id="9">1.95031e-06</wgt>
  <wgt id="10">2.8251e-06</wgt>
  <wgt id="11">2.8251e-06</wgt>
  <wgt id="12">2.8251e-06</wgt>
  <wgt id="13">2.8251e-06</wgt>
  <wgt id="14">2.83191e-06</wgt>
  <wgt id="15">2.81968e-06</wgt>
  <wgt id="16">2.85763e-06</wgt>
  <wgt id="17">2.78894e-06</wgt>
  <wgt id="18">2.81114e-06</wgt>
  <wgt id="19">2.8461e-06</wgt>
  <wgt id="20">2.85978e-06</wgt>
  <wgt id="21">2.80193e-06</wgt>
  <wgt id="22">2.83611e-06</wgt>
  <wgt id="23">2.80957e-06</wgt>
  <wgt id="24">2.88147e-06</wgt>
  <wgt id="25">2.79087e-06</wgt>
  <wgt id="26">2.82752e-06</wgt>
  <wgt id="27">2.82192e-06</wgt>
  <wgt id="28">2.82859e-06</wgt>
  <wgt id="29">2.824e-06</wgt>
  <wgt id="30">2.82995e-06</wgt>
  <wgt id="31">2.81677e-06</wgt>
  <wgt id="32">2.84666e-06</wgt>
  <wgt id="33">2.80451e-06</wgt>
  <wgt id="34">2.81697e-06</wgt>
  <wgt id="35">2.83908e-06</wgt>
  <wgt id="36">2.84588e-06</wgt>
  <wgt id="37">2.80917e-06</wgt>
  <wgt id="38">2.85918e-06</wgt>
  <wgt id="39">2.80939e-06</wgt>
  <wgt id="40">2.81365e-06</wgt>
  <wgt id="41">2.83863e-06</wgt>
  <wgt id="42">2.83915e-06</wgt>
  <wgt id="43">2.77996e-06</wgt>
  <wgt id="44">2.83366e-06</wgt>
  <wgt id="45">2.82233e-06</wgt>
  <wgt id="46">2.81389e-06</wgt>
  <wgt id="47">2.83416e-06</wgt>
  <wgt id="48">2.82897e-06</wgt>
  <wgt id="49">2.82276e-06</wgt>
  <wgt id="50">2.83343e-06</wgt>
  <wgt id="51">2.80581e-06</wgt>
  <wgt id="52">2.82752e-06</wgt>
  <wgt id="53">2.82435e-06</wgt>
</rwgt>
</event>
<event>
 10      0 +2.8251000e-06 4.23006200e+02 7.54677100e-03 1.00965100e-01
        2 -1    0    0  502    0 +0.00000000000e+00 +0.00000000000e+00 +1.02293975600e+03  1.02293975600e+03  0.00000000000e+00 0.0000e+00 -1.0000e+00
       -1 -1    0    0    0  501 +0.00000000000e+00 +0.00000000000e+00 -1.09132399400e+02  1.09132399400e+02  0.00000000000e+00 0.0000e+00 1.0000e+00
       24  2    1    2    0    0 +3.10752713864e+01 -9.80128334785e+01 +9.02690439776e+02  9.11832679264e+02  7.75668543340e+01 0.0000e+00 0.0000e+00
       12  1    3    3    0    0 +3.99690840834e+01 -6.99925208883e+01 +8.22208026050e+02  8.26149210957e+02  0.00000000000e+00 0.0000e+00 -1.0000e+00
      -11  1    3    3    0    0 -8.89381269698e+00 -2.80203125903e+01 +8.04824137260e+01  8.56834683069e+01  0.00000000000e+00 0.0000e+00 1.0000e+00
       24  2    1    2    0    0 -2.44317818348e+01 +1.02936980160e+02 +6.76968378869e+00  1.34331274176e+02  8.24992651796e+01 0.0000e+00 0.0000e+00
        2  1    6    6  503    0 +8.79448476776e+00 +1.07755964532e+00 -2.17274975822e+01  2.34646169435e+01  0.00000000000e+00 0.0000e+00 -1.0000e+00
       -1  1    6    6    0  503 -3.32262666025e+01 +1.01859420514e+02 +2.84971813709e+01  1.10866657233e+02  0.00000000000e+00 0.0000e+00 1.0000e+00
        1  1    1    2  502    0 -2.24870816180e+01 -4.07547041611e+01 +4.13828099232e+00  4.67305052458e+01  0.00000000000e+00 0.0000e+00 -1.0000e+00
       -2  1    1    2    0  501 +1.58435920663e+01 +3.58305574800e+01 +2.08952042648e-01  3.91776967144e+01  0.00000000000e+00 0.0000e+00 1.0000e+00
#  0.1300000e+05  0.1300000e+05  0.4658451e+02  0.1300000e+05
<mgrwt>
<rscale>  2 0.31601219e+03</rscale>
<asrwt>0</asrwt>
<pdfrwt beam="1">  1        2 0.15737535e+00 0.42300618e+03</pdfrwt>
<pdfrwt beam="2">  1       -1 0.16789600e-01 0.13175746e+03</pdfrwt>
<totfact> 0.82632934e+00</totfact>
</mgrwt>
<clustering>
<clus scale="   41.387">  3  6 -1 -1</clus>
<clus scale="   46.585">  3  5 -1 -1</clus>
<clus scale="  131.757">  2  4  1 -1</clus>
<clus scale="  423.006">  1  3  2 -1</clus>
</clustering>
<rwgt>
  <wgt id="1">4.1399e-06</wgt>
  <wgt id="2">2.79462e-06</wgt>
  <wgt id="3">2.01677e-06</wgt>
  <wgt id="4">4.18506e-06</wgt>
  <wgt id="5">2.8251e-06</wgt>
  <wgt id="6">2.03877e-06</wgt>
  <wgt id="7">4.127e-06</wgt>
  <wgt id="8">2.7859e-06</wgt>
  <wgt id="9">2.01049e-06</wgt>
  <wgt id="10">2.8251e-06</wgt>
  <wgt id="11">2.8251e-06</wgt>
  <wgt id="12">2.8251e-06</wgt>
  <wgt id="13">2.8251e-06</wgt>
  <wgt id="14">2.83007e-06</wgt>
  <wgt id="15">2.82103e-06</wgt>
  <wgt id="16">2.83172e-06</wgt>
  <wgt id="17">2.81753e-06</wgt>
  <wgt id="18">2.81331e-06</wgt>
  <wgt id="19">2.84263e-06</wgt>
  <wgt id="20">2.82778e-06</wgt>
  <wgt id="21">2.82332e-06</wgt>
  <wgt id="22">2.83153e-06</wgt>
  <wgt id="23">2.81603e-06</wgt>
  <wgt id="24">2.85947e-06</wgt>
  <wgt id="25">2.80397e-06</wgt>
  <wgt id="26">2.82693e-06</wgt>
  <wgt id="27">2.82267e-06</wgt>
  <wgt id="28">2.84787e-06</wgt>
  <wgt id="29">2.8168e-06</wgt>
  <wgt id="30">2.8387e-06</wgt>
  <wgt id="31">2.80613e-06</wgt>
  <wgt id="32">2.8319e-06</wgt>
  <wgt id="33">2.81858e-06</wgt>
  <wgt id="34">2.79473e-06</wgt>
  <wgt id="35">2.88045e-06</wgt>
  <wgt id="36">2.85568e-06</wgt>
  <wgt id="37">2.80751e-06</wgt>
  <wgt id="38">2.819e-06</wgt>
  <wgt id="39">2.82811e-06</wgt>
  <wgt id="40">2.82421e-06</wgt>
  <wgt id="41">2.82755e-06</wgt>
  <wgt id="42">2.84275e-06</wgt>
  <wgt id="43">2.78833e-06</wgt>
  <wgt id="44">2.83051e-06</wgt>
  <wgt id="45">2.82322e-06</wgt>
  <wgt id="46">2.81527e-06</wgt>
  <wgt id="47">2.83187e-06</wgt>
  <wgt id="48">2.82668e-06</wgt>
  <wgt id="49">2.82525e-06</wgt>
  <wgt id="50">2.81965e-06</wgt>
  <wgt id="51">2.81875e-06</wgt>
  <wgt id="52">2.83949e-06</wgt>
  <wgt id="53">2.82122e-06</wgt>
</rwgt>
</event>
<event>
 11      0 +2.8251000e-06 4.23262500e+02 7.54677100e-03 9.77749200e-02
        2 -1    0    0  503    0 +0.00000000000e+00 +0.00000000000e+00 +6.39405512970e+02  6.39405512970e+02  0.00000000000e+00 0.0000e+00 -1.0000e+00
        4 -1    0    0  501    0 +0.00000000000e+00 +0.00000000000e+00 -3.22243128120e+02  3.22243128120e+02  0.00000000000e+00 0.0000e+00 -1.0000e+00
       24  2    1    2    0    0 -6.91563088348e+01 -2.68684907980e+00 +3.14349896802e+02  3.31892254685e+02  8.09122789852e+01 0.0000e+00 0.0000e+00
       14  1    3    3    0    0 -7.65923731019e+01 -1.25595339015e+01 +3.08690197381e+02  3.18298242955e+02  0.00000000000e+00 0.0000e+00 -1.0000e+00
      -13  1    3    3    0    0 +7.43606426717e+00 +9.87268482169e+00 +5.65969942159e+00  1.35940117300e+01  0.00000000000e+00 0.0000e+00 1.0000e+00
       24  2    1    2    0    0 +7.75355381877e+01 +2.05754980394e+01 -1.81502330215e+02  2.14348571175e+02  8.10376658684e+01 0.0000e+00 0.0000e+00
        2  1    6    6  504    0 +6.48432359051e+01 +4.12350360672e+01 -1.71855266475e+02  1.88253037312e+02  0.00000000000e+00 0.0000e+00 -1.0000e+00
       -1  1    6    6    0  504 +1.26923022826e+01 -2.06595380278e+01 -9.64706374037e+00  2.60955338624e+01  0.00000000000e+00 0.0000e+00 1.0000e+00
       21  1    1    2  503  502 +1.59283947382e+01 -7.13660369413e+01 +6.93284138248e+01  1.00763356192e+02  0.00000000000e+00 0.0000e+00 -1.0000e+00
        1  1    1    2  501    0 -8.26000958050e+01 +1.72185193071e+01 +1.93053545610e+02  2.10686792910e+02  0.00000000000e+00 0.0000e+00 -1.0000e+00
        3  1    1    2  502    0 +5.82924717138e+01 +3.62588686747e+01 -7.80671411718e+01  1.03957666128e+02  0.00000000000e+00 0.0000e+00 -1.0000e+00
#  0.1300000e+05  0.1300000e+05  0.7339013e+02  0.1300000e+05  0.1300000e+05
<mgrwt>
<rscale>  2 0.40769472e+03</rscale>
<asrwt>  1 0.73390135e+02</asrwt>
<pdfrwt beam="1">  2        2        2 0.98370079e-01 0.80408482e-01 0.73390135e+02 0.42326250e+03</pdfrwt>
<pdfrwt beam="2">  1        4 0.49575866e-01 0.36434345e+03</pdfrwt>
<totfact> 0.13290764e-01</totfact>
</mgrwt>
<clustering>
<clus scale="   68.481">  3  7 -1 -1</clus>
<clus scale="   73.390">  1  5  2 -1</clus>
<clus scale="   77.266">  4  6 -1 -1</clus>
<clus scale="  364.343">  2  3  1 -1</clus>
<clus scale="  423.262">  1  3  2 -1</clus>
</clustering>
<rwgt>
  <wgt id="1">3.99236e-06</wgt>
  <wgt id="2">2.73354e-06</wgt>
  <wgt id="3">1.99218e-06</wgt>
  <wgt id="4">4.12609e-06</wgt>
  <wgt id="5">2.8251e-06</wgt>
  <wgt id="6">2.05891e-06</wgt>
  <wgt id="7">4.13123e-06</wgt>
  <wgt id="8">2.82862e-06</wgt>
  <wgt id="9">2.06147e-06</wgt>
  <wgt id="10">3.63216e-06</wgt>
  <wgt id="11">2.8251e-06</wgt>
  <wgt id="12">2.316e-06</wgt>
  <wgt id="13">2.8251e-06</wgt>
  <wgt id="14">2.83334e-06</wgt>
  <wgt id="15">2.81821e-06</wgt>
  <wgt id="16">2.82378e-06</wgt>
  <wgt id="17">2.8264e-06</wgt>
  <wgt id="18">2.82023e-06</wgt>
  <wgt id="19">2.83224e-06</wgt>
  <wgt id="20">2.81944e-06</wgt>
  <wgt id="21">2.82879e-06</wgt>
  <wgt id="22">2.82482e-06</wgt>
  <wgt id="23">2.82542e-06</wgt>
  <wgt id="24">2.82303e-06</wgt>
  <wgt id="25">2.82618e-06</wgt>
  <wgt id="26">2.82849e-06</wgt>
  <wgt id="27">2.8204e-06</wgt>
  <wgt id="28">2.84249e-06</wgt>
  <wgt id="29">2.8187e-06</wgt>
  <wgt id="30">2.81549e-06</wgt>
  <wgt id="31">2.83604e-06</wgt>
  <wgt id="32">2.82697e-06</wgt>
  <wgt id="33">2.8232e-06</wgt>
  <wgt id="34">2.83252e-06</wgt>
  <wgt id="35">2.81279e-06</wgt>
  <wgt id="36">2.82125e-06</wgt>
  <wgt id="37">2.82887e-06</wgt>
  <wgt id="38">2.81006e-06</wgt>
  <wgt id="39">2.83218e-06</wgt>
  <wgt id="40">2.81883e-06</wgt>
  <wgt id="41">2.8328e-06</wgt>
  <wgt id="42">2.8199e-06</wgt>
  <wgt id="43">2.83389e-06</wgt>
  <wgt id="44">2.827e-06</wgt>
  <wgt id="45">2.82436e-06</wgt>
  <wgt id="46">2.83025e-06</wgt>
  <wgt id="47">2.82215e-06</wgt>
  <wgt id="48">2.81694e-06</wgt>
  <wgt id="49">2.82941e-06</wgt>
  <wgt id="50">2.85615e-06</wgt>
  <wgt id="51">2.79588e-06</wgt>
  <wgt id="52">2.82911e-06</wgt>
  <wgt id="53">2.82403e-06</wgt>
</rwgt>
</event>
<event>
 10      0 +2.8251000e-06 3.12662600e+02 7.54677100e-03 1.01248900e-01
        2 -1    0    0  502    0 +0.00000000000e+00 +0.00000000000e+00 +7.14278739370e+02  7.14278739370e+02  0.00000000000e+00 0.0000e+00 -1.0000e+00
        2 -1    0    0  501    0 +0.00000000000e+00 +0.00000000000e+00 -1.07911610600e+03  1.07911610600e+03  0.00000000000e+00 0.0000e+00 -1.0000e+00
       24  2    1    2    0    0 +4.34008328422e+00 +4.11993488232e+01 -1.02320016304e+03  1.02714993066e+03  7.98885707033e+01 0.0000e+00 0.0000e+00
        2  1    3    3  503    0 +1.20239141121e+01 +5.05740597945e+01 -9.96180766700e+02  9.97536179784e+02  0.00000000000e+00 0.0000e+00 -1.0000e+00
       -1  1    3    3    0  503 -7.68383082791e+00 -9.37471097124e+00 -2.70193963443e+01  2.96137508735e+01  0.00000000000e+00 0.0000e+00 1.0000e+00
       24  2    1    2    0    0 +8.82430163771e+01 -1.38994961136e+02 +5.17671427098e+02  5.49254250512e+02  8.11794069416e+01 0.0000e+00 0.0000e+00
       14  1    6    6    0    0 +9.29701156305e+01 -1.47178604786e+02 +4.88663006569e+02  5.18745137902e+02  0.00000000000e+00 0.0000e+00 -1.0000e+00
      -13  1    6    6    0    0 -4.72709925334e+00 +8.18364364923e+00 +2.90084205286e+01  3.05091126107e+01  0.00000000000e+00 0.0000e+00 1.0000e+00
        1  1    1    2  501    0 -8.57959105361e+01 +5.53665265856e+01 +1.40915275820e+02  1.74021566164e+02  0.00000000000e+00 0.0000e+00 -1.0000e+00
        1  1    1    2  502    0 -6.78718912524e+00 +4.24290857276e+01 -2.23906503584e-01  4.29690980360e+01  0.00000000000e+00 0.0000e+00 -1.0000e+00
#  0.1300000e+05  0.1300000e+05  0.1300000e+05  0.1300000e+05
<mgrwt>
<rscale>  2 0.30918539e+03</rscale>
<asrwt>0</asrwt>
<pdfrwt beam="1">  1        2 0.10988904e+00 0.29898405e+03</pdfrwt>
<pdfrwt beam="2">  1        2 0.16601786e+00 0.31266261e+03</pdfrwt>
<totfact> 0.15584454e+00</totfact>
</mgrwt>
<clustering>
<clus scale="   42.925">  3  6 -1 -1</clus>
<clus scale="  102.275">  4  5 -1 -1</clus>
<clus scale="  298.984">  1  4  2 -1</clus>
<clus scale="  312.663">  1  3  2 -1</clus>
</clustering>
<rwgt>
  <wgt id="1">4.71425e-06</wgt>
  <wgt id="2">3.17828e-06</wgt>
  <wgt id="3">2.29164e-06</wgt>
  <wgt id="4">4.19039e-06</wgt>
  <wgt id="5">2.8251e-06</wgt>
  <wgt id="6">2.03698e-06</wgt>
  <wgt id="7">3.76442e-06</wgt>
  <wgt id="8">2.53792e-06</wgt>
  <wgt id="9">1.82992e-06</wgt>
  <wgt id="10">2.8251e-06</wgt>
  <wgt id="11">2.8251e-06</wgt>
  <wgt id="12">2.8251e-06</wgt>
  <wgt id="13">2.8251e-06</wgt>
  <wgt id="14">2.8279e-06</wgt>
  <wgt id="15">2.82275e-06</wgt>
  <wgt id="16">2.81469e-06</wgt>
  <wgt id="17">2.83659e-06</wgt>
  <wgt id="18">2.81176e-06</wgt>
  <wgt id="19">2.84481e-06</wgt>
  <wgt id="20">2.81276e-06</wgt>
  <wgt id="21">2.83333e-06</wgt>
  <wgt id="22">2.83238e-06</wgt>
  <wgt id="23">2.81473e-06</wgt>
  <wgt id="24">2.86567e-06</wgt>
  <wgt id="25">2.80005e-06</wgt>
  <wgt id="26">2.8244e-06</wgt>
  <wgt id="27">2.82605e-06</wgt>
  <wgt id="28">2.8761e-06</wgt>
  <wgt id="29">2.80666e-06</wgt>
  <wgt id="30">2.83056e-06</wgt>
  <wgt id="31">2.81817e-06</wgt>
  <wgt id="32">2.82881e-06</wgt>
  <wgt id="33">2.82158e-06</wgt>
  <wgt id="34">2.78769e-06</wgt>
  <wgt id="35">2.89423e-06</wgt>
  <wgt id="36">2.85184e-06</wgt>
  <wgt id="37">2.81023e-06</wgt>
  <wgt id="38">2.81208e-06</wgt>
  <wgt id="39">2.8315e-06</wgt>
  <wgt id="40">2.82583e-06</wgt>
  <wgt id="41">2.8248e-06</wgt>
  <wgt id="42">2.84913e-06</wgt>
  <wgt id="43">2.78509e-06</wgt>
  <wgt id="44">2.83381e-06</wgt>
  <wgt id="45">2.82181e-06</wgt>
  <wgt id="46">2.82505e-06</wgt>
  <wgt id="47">2.82537e-06</wgt>
  <wgt id="48">2.81321e-06</wgt>
  <wgt id="49">2.83355e-06</wgt>
  <wgt id="50">2.81487e-06</wgt>
  <wgt id="51">2.83938e-06</wgt>
  <wgt id="52">2.83687e-06</wgt>
  <wgt id="53">2.82195e-06</wgt>
</rwgt>
</event>
<event>
 11      0 +2.8251000e-06 4.16610900e+02 7.54677100e-03 9.89113000e-02
        2 -1    0    0  503    0 +0.00000000000e+00 +0.00000000000e+00 +1.31483509880e+03  1.31483509880e+03  0.00000000000e+00 0.0000e+00 -1.0000e+00
        2 -1    0    0  501    0 +0.00000000000e+00 +0.00000000000e+00 -1.54468890380e+03  1.54468890380e+03  0.00000000000e+00 0.0000e+00 -1.0000e+00
       24  2    1    2    0    0 +2.07914297288e+02 +2.21109668446e+02 +8.33260103604e+02  8.90494527604e+02  8.08718921356e+01 0.0000e+00 0.0000e+00
        2  1    3    3  504    0 +1.45966196907e+02 +1.09677450477e+02 +5.58714268799e+02  5.87789850152e+02  0.00000000000e+00 0.0000e+00 -1.0000e+00
       -1  1    3    3    0  504 +6.19481003814e+01 +1.11432217969e+02 +2.74545834805e+02  3.02704677452e+02  0.00000000000e+00 0.0000e+00 1.0000e+00
       24  2    1    2    0    0 +1.81813988751e+02 +3.58316004862e+01 -7.13163049524e+02  7.41204338351e+02  8.02627303542e+01 0.0000e+00 0.0000e+00
       12  1    6    6    0    0 +1.36110406122e+02 +4.99793487352e+01 -4.23926416422e+02  4.48037481128e+02  0.00000000000e+00 0.0000e+00 -1.0000e+00
      -11  1    6    6    0    0 +4.57035826284e+01 -1.41477482490e+01 -2.89236633102e+02  2.93166857223e+02  0.00000000000e+00 0.0000e+00 1.0000e+00
       21  1    1    2  503  502 +2.29675041169e+02 -2.21580878571e+02 -1.01138485133e+02  3.34780082232e+02  0.00000000000e+00 0.0000e+00 -1.0000e+00
        1  1    1    2  501    0 -6.86492211035e+02 +1.08170350043e+02 -1.67057176507e+02  7.14759036783e+02  0.00000000000e+00 0.0000e+00 -1.0000e+00
        1  1    1    2  502    0 +6.70888838277e+01 -1.43530740404e+02 -8.17551974394e+01  1.78286017631e+02  0.00000000000e+00 0.0000e+00 -1.0000e+00
#  0.1300000e+05  0.1300000e+05  0.6462074e+02  0.1300000e+05  0.1300000e+05
<mgrwt>
<rscale>  2 0.37161353e+03</rscale>
<asrwt>  1 0.64620743e+02</asrwt>
<pdfrwt beam="1">  1        2 0.20228232e+00 0.31911805e+03</pdfrwt>
<pdfrwt beam="2">  1        2 0.23764445e+00 0.20202029e+03</pdfrwt>
<totfact> 0.45635595e-02</totfact>
</mgrwt>
<clustering>
<clus scale="   64.621">  5  7 -1 -1</clus>
<clus scale="  202.020">  2  4  1 -1</clus>
<clus scale="  319.118">  1  3  2 -1</clus>
<clus scale="  536.100">  1  6  2 -1</clus>
<clus scale="  543.888">  1  3  2 -1</clus>
</clustering>
<rwgt>
  <wgt id="1">5.11393e-06</wgt>
  <wgt id="2">3.48413e-06</wgt>
  <wgt id="3">2.53029e-06</wgt>
  <wgt id="4">4.14661e-06</wgt>
  <wgt id="5">2.8251e-06</wgt>
  <wgt id="6">2.05168e-06</wgt>
  <wgt id="7">3.4573e-06</wgt>
  <wgt id="8">2.35547e-06</wgt>
  <wgt id="9">1.71062e-06</wgt>
  <wgt id="10">3.65503e-06</wgt>
  <wgt id="11">2.8251e-06</wgt>
  <wgt id="12">2.30703e-06</wgt>
  <wgt id="13">2.8251e-06</wgt>
  <wgt id="14">2.8281e-06</wgt>
  <wgt id="15">2.82256e-06</wgt>
  <wgt id="16">2.80548e-06</wgt>
  <wgt id="17">2.84694e-06</wgt>
  <wgt id="18">2.8105e-06</wgt>
  <wgt id="19">2.84671e-06</wgt>
  <wgt id="20">2.81864e-06</wgt>
  <wgt id="21">2.82943e-06</wgt>
  <wgt id="22">2.834e-06</wgt>
  <wgt id="23">2.81233e-06</wgt>
  <wgt id="24">2.87336e-06</wgt>
  <wgt id="25">2.79536e-06</wgt>
  <wgt id="26">2.82599e-06</wgt>
  <wgt id="27">2.82378e-06</wgt>
  <wgt id="28">2.87876e-06</wgt>
  <wgt id="29">2.80566e-06</wgt>
  <wgt id="30">2.83148e-06</wgt>
  <wgt id="31">2.81706e-06</wgt>
  <wgt id="32">2.82565e-06</wgt>
  <wgt id="33">2.82446e-06</wgt>
  <wgt id="34">2.78074e-06</wgt>
  <wgt id="35">2.90724e-06</wgt>
  <wgt id="36">2.84554e-06</wgt>
  <wgt id="37">2.81342e-06</wgt>
  <wgt id="38">2.81407e-06</wgt>
  <wgt id="39">2.83103e-06</wgt>
  <wgt id="40">2.82982e-06</wgt>
  <wgt id="41">2.82049e-06</wgt>
  <wgt id="42">2.85032e-06</wgt>
  <wgt id="43">2.78552e-06</wgt>
  <wgt id="44">2.83011e-06</wgt>
  <wgt id="45">2.82339e-06</wgt>
  <wgt id="46">2.82227e-06</wgt>
  <wgt id="47">2.8267e-06</wgt>
  <wgt id="48">2.83027e-06</wgt>
  <wgt id="49">2.82832e-06</wgt>
  <wgt id="50">2.81797e-06</wgt>
  <wgt id="51">2.83673e-06</wgt>
  <wgt id="52">2.84398e-06</wgt>
  <wgt id="53">2.82041e-06</wgt>
</rwgt>
</event>
<event>
 12      0 +2.8251000e-06 3.85907200e+02 7.54677100e-03 9.86995600e-02
        2 -1    0    0  503    0 +0.00000000000e+00 +0.00000000000e+00 +1.60504820540e+03  1.60504820540e+03  0.00000000000e+00 0.0000e+00 -1.0000e+00
        2 -1    0    0  504    0 +0.00000000000e+00 +0.00000000000e+00 -3.99449220340e+02  3.99449220340e+02  0.00000000000e+00 0.0000e+00 -1.0000e+00
       24  2    1    2    0    0 -1.22722332726e+02 -1.02094550687e+02 +2.95632469778e+02  3.45400194606e+02  8.01165963923e+01 0.0000e+00 0.0000e+00
        4  1    3    3  505    0 -1.05116917530e+02 -5.84051816595e+01 +1.49488617461e+02  1.91853012346e+02  0.00000000000e+00 0.0000e+00 -1.0000e+00
       -3  1    3    3    0  505 -1.76054151962e+01 -4.36893690277e+01 +1.46143852316e+02  1.53547182261e+02  0.00000000000e+00 0.0000e+00 1.0000e+00
       24  2    1    2    0    0 +1.86849505574e+02 +2.43718644747e+02 +4.00540669266e+02  5.10786351244e+02  7.84751766590e+01 0.0000e+00 0.0000e+00
        2  1    6    6  506    0 +8.33059086854e+01 +1.06472342144e+02 +2.40549641839e+02  2.75935434934e+02  0.00000000000e+00 0.0000e+00 -1.0000e+00
       -1  1    6    6    0  506 +1.03543596888e+02 +1.37246302603e+02 +1.59991027426e+02  2.34850916310e+02  0.00000000000e+00 0.0000e+00 1.0000e+00
       21  1    1    2  503  501 +1.68545238911e+01 -2.41138235606e+02 +4.40855226861e+02  5.02777341074e+02  0.00000000000e+00 0.0000e+00 -1.0000e+00
       21  1    1    2  504  502 -9.67778446939e+01 -7.07212276760e+01 -2.06033368929e+02  2.38363571839e+02  0.00000000000e+00 0.0000e+00 -1.0000e+00
        1  1    1    2  501    0 +6.96273708919e+01 -4.13093667193e+01 +9.22479018868e+01  1.22735935889e+02  0.00000000000e+00 0.0000e+00 -1.0000e+00
        1  1    1    2  502    0 -5.38312229364e+01 +2.11544735941e+02 +1.82356086198e+02  2.84434031087e+02  0.00000000000e+00 0.0000e+00 -1.0000e+00
#  0.1300000e+05  0.1300000e+05  0.2533427e+03  0.1198625e+03  0.1300000e+05  0.1300000e+05
<mgrwt>
<rscale>  2 0.37802610e+03</rscale>
<asrwt>  2 0.11986249e+03 0.25334270e+03</asrwt>
<pdfrwt beam="1">  2        2        2 0.24693049e+00 0.12218202e+00 0.25334270e+03 0.38590716e+03</pdfrwt>
<pdfrwt beam="2">  2        2        2 0.61453726e-01 0.26651437e-01 0.11986249e+03 0.38590716e+03</pdfrwt>
<totfact> 0.19669359e-02</totfact>
</mgrwt>
<clustering>
<clus scale="   80.980">  3  7 -1 -1</clus>
<clus scale="  119.862">  2  6  1 -1</clus>
<clus scale="  207.858">  4  8 -1 -1</clus>
<clus scale="  253.343">  1  5  2 -1</clus>
<clus scale="  355.336">  2  3  1 -1</clus>
<clus scale="  385.907">  1  3  2 -1</clus>
</clustering>
<rwgt>
  <wgt id="1">4.45185e-06</wgt>
  <wgt id="2">3.03603e-06</wgt>
  <wgt id="3">2.20631e-06</wgt>
  <wgt id="4">4.14256e-06</wgt>
  <wgt id="5">2.8251e-06</wgt>
  <wgt id="6">2.05302e-06</wgt>
  <wgt id="7">4.02542e-06</wgt>
  <wgt id="8">2.74522e-06</wgt>
  <wgt id="9">1.99497e-06</wgt>
  <wgt id="10">4.3549e-06</wgt>
  <wgt id="11">2.8251e-06</wgt>
  <wgt id="12">1.98527e-06</wgt>
  <wgt id="13">2.8251e-06</wgt>
  <wgt id="14">2.82832e-06</wgt>
  <wgt id="15">2.82252e-06</wgt>
  <wgt id="16">2.81568e-06</wgt>
  <wgt id="17">2.83565e-06</wgt>
  <wgt id="18">2.81205e-06</wgt>
  <wgt id="19">2.84458e-06</wgt>
  <wgt id="20">2.81595e-06</wgt>
  <wgt id="21">2.83134e-06</wgt>
  <wgt id="22">2.83248e-06</wgt>
  <wgt id="23">2.81465e-06</wgt>
  <wgt id="24">2.86585e-06</wgt>
  <wgt id="25">2.8001e-06</wgt>
  <wgt id="26">2.82465e-06</wgt>
  <wgt id="27">2.82579e-06</wgt>
  <wgt id="28">2.86821e-06</wgt>
  <wgt id="29">2.80942e-06</wgt>
  <wgt id="30">2.8297e-06</wgt>
  <wgt id="31">2.81921e-06</wgt>
  <wgt id="32">2.82754e-06</wgt>
  <wgt id="33">2.82273e-06</wgt>
  <wgt id="34">2.78814e-06</wgt>
  <wgt id="35">2.89333e-06</wgt>
  <wgt id="36">2.8362e-06</wgt>
  <wgt id="37">2.82035e-06</wgt>
  <wgt id="38">2.81674e-06</wgt>
  <wgt id="39">2.82958e-06</wgt>
  <wgt id="40">2.82864e-06</wgt>
  <wgt id="41">2.82178e-06</wgt>
  <wgt id="42">2.84676e-06</wgt>
  <wgt id="43">2.78794e-06</wgt>
  <wgt id="44">2.83363e-06</wgt>
  <wgt id="45">2.82194e-06</wgt>
  <wgt id="46">2.82435e-06</wgt>
  <wgt id="47">2.82582e-06</wgt>
  <wgt id="48">2.81094e-06</wgt>
  <wgt id="49">2.83515e-06</wgt>
  <wgt id="50">2.81684e-06</wgt>
  <wgt id="51">2.83726e-06</wgt>
  <wgt id="52">2.83361e-06</wgt>
  <wgt id="53">2.82303e-06</wgt>
</rwgt>
</event>
<event>
 11      0 +2.8251000e-06 5.86323300e+02 7.54677100e-03 9.62458800e-02
        2 -1    0    0  502    0 +0.00000000000e+00 +0.00000000000e+00 +9.24397006180e+02  9.24397006180e+02  0.00000000000e+00 0.0000e+00 -1.0000e+00
       21 -1    0    0  501  503 +0.00000000000e+00 +0.00000000000e+00 -7.64546226100e+02  7.64546226100e+02  0.00000000000e+00 0.0000e+00 1.0000e+00
       24  2    1    2    0    0 -1.43017513385e+02 +2.30582253425e+02 +4.13456153319e+02  5.03767402916e+02  9.59865656963e+01 0.0000e+00 0.0000e+00
        4  1    3    3  504    0 -5.48537540454e+01 +1.51471170984e+02 +2.95674139894e+02  3.36713003868e+02  0.00000000000e+00 0.0000e+00 -1.0000e+00
       -3  1    3    3    0  504 -8.81637593397e+01 +7.91110824411e+01 +1.17782013425e+02  1.67054399048e+02  0.00000000000e+00 0.0000e+00 1.0000e+00
       24  2    1    2    0    0 +3.49680507839e+01 -1.42341831810e+01 +8.08594428716e+01  1.19126392212e+02  7.89143286964e+01 0.0000e+00 0.0000e+00
       16  1    6    6    0    0 -2.31612451355e+01 -1.51886886992e+01 +3.74083156316e+01  4.65459087249e+01  0.00000000000e+00 0.0000e+00 -1.0000e+00
      -15  1    6    6    0    0 +5.81292959194e+01 +9.54505518225e-01 +4.34511272400e+01  7.25804834876e+01  1.77700000000e+00 0.0000e+00 1.0000e+00
        1  1    1    2  501    0 +6.27018695429e+01 -2.81740429540e+02 +2.53535717331e+02  3.84173859137e+02  0.00000000000e+00 0.0000e+00 -1.0000e+00
        1  1    1    2  502    0 -1.43802444120e-01 +1.16175536400e+02 -3.03525558294e+01  1.20075199697e+02  0.00000000000e+00 0.0000e+00 -1.0000e+00
       -2  1    1    2    0  503 +4.54913955025e+01 -5.07831771033e+01 -5.57647977613e+02  5.61800378317e+02  0.00000000000e+00 0.0000e+00 1.0000e+00
#  0.1300000e+05  0.1300000e+05  0.1300000e+05  0.1300000e+05  0.6817916e+02
<mgrwt>
<rscale>  2 0.46340437e+03</rscale>
<asrwt>  1 0.68179162e+02</asrwt>
<pdfrwt beam="1">  2       21        2 0.11762250e+00 0.31246904e-01 0.68179162e+02 0.58632330e+03</pdfrwt>
<pdfrwt beam="2">  1        2 0.14221492e+00 0.58632330e+03</pdfrwt>
<totfact> 0.28562089e-01</totfact>
</mgrwt>
<clustering>
<clus scale="   68.179">  2  7  1 -1</clus>
<clus scale="   98.280">  4  6 -1 -1</clus>
<clus scale="  228.786">  2  4  1 -1</clus>
<clus scale="  276.891">  3  5 -1 -1</clus>
<clus scale="  586.323">  2  3  1 -1</clus>
</clustering>
<rwgt>
  <wgt id="1">4.26826e-06</wgt>
  <wgt id="2">2.94197e-06</wgt>
  <wgt id="3">2.15425e-06</wgt>
  <wgt id="4">4.0987e-06</wgt>
  <wgt id="5">2.8251e-06</wgt>
  <wgt id="6">2.06867e-06</wgt>
  <wgt id="7">3.92181e-06</wgt>
  <wgt id="8">2.70318e-06</wgt>
  <wgt id="9">1.9794e-06</wgt>
  <wgt id="10">3.6452e-06</wgt>
  <wgt id="11">2.8251e-06</wgt>
  <wgt id="12">2.3108e-06</wgt>
  <wgt id="13">2.8251e-06</wgt>
  <wgt id="14">2.833e-06</wgt>
  <wgt id="15">2.81853e-06</wgt>
  <wgt id="16">2.81707e-06</wgt>
  <wgt id="17">2.83401e-06</wgt>
  <wgt id="18">2.81847e-06</wgt>
  <wgt id="19">2.83481e-06</wgt>
  <wgt id="20">2.81995e-06</wgt>
  <wgt id="21">2.8285e-06</wgt>
  <wgt id="22">2.82661e-06</wgt>
  <wgt id="23">2.82284e-06</wgt>
  <wgt id="24">2.83288e-06</wgt>
  <wgt id="25">2.82014e-06</wgt>
  <wgt id="26">2.82615e-06</wgt>
  <wgt id="27">2.82363e-06</wgt>
  <wgt id="28">2.8518e-06</wgt>
  <wgt id="29">2.81533e-06</wgt>
  <wgt id="30">2.79797e-06</wgt>
  <wgt id="31">2.85882e-06</wgt>
  <wgt id="32">2.82991e-06</wgt>
  <wgt id="33">2.82041e-06</wgt>
  <wgt id="34">2.84355e-06</wgt>
  <wgt id="35">2.79512e-06</wgt>
  <wgt id="36">2.81287e-06</wgt>
  <wgt id="37">2.83393e-06</wgt>
  <wgt id="38">2.801e-06</wgt>
  <wgt id="39">2.83683e-06</wgt>
  <wgt id="40">2.81688e-06</wgt>
  <wgt id="41">2.83372e-06</wgt>
  <wgt id="42">2.82423e-06</wgt>
  <wgt id="43">2.82858e-06</wgt>
  <wgt id="44">2.82329e-06</wgt>
  <wgt id="45">2.82596e-06</wgt>
  <wgt id="46">2.8292e-06</wgt>
  <wgt id="47">2.8227e-06</wgt>
  <wgt id="48">2.83285e-06</wgt>
  <wgt id="49">2.82257e-06</wgt>
  <wgt id="50">2.83985e-06</wgt>
  <wgt id="51">2.82935e-06</wgt>
  <wgt id="52">2.8368e-06</wgt>
  <wgt id="53">2.82205e-06</wgt>
</rwgt>
</event>
<event>
 10      0 +2.8251000e-06 1.69350300e+02 7.54677100e-03 1.12633700e-01
       -3 -1    0    0    0  501 +0.00000000000e+00 +0.00000000000e+00 +8.69255223780e+01  8.69255223780e+01  0.00000000000e+00 0.0000e+00 1.0000e+00
        2 -1    0    0  501    0 +0.00000000000e+00 +0.00000000000e+00 -4.01660199120e+02  4.01660199120e+02  0.00000000000e+00 0.0000e+00 -1.0000e+00
       24  2    1    2    0    0 -4.62252064313e+00 -2.35879854928e+01 -2.11973092328e+02  2.27303191512e+02  7.84626550920e+01 0.0000e+00 0.0000e+00
       16  1    3    3    0    0 -1.85721386840e+01 -3.15737843840e+00 -1.97993824750e+02  1.98888028833e+02  0.00000000000e+00 0.0000e+00 -1.0000e+00
      -15  1    3    3    0    0 +1.39496180408e+01 -2.04306070544e+01 -1.39792675777e+01  2.84151626795e+01  1.77700000000e+00 0.0000e+00 1.0000e+00
       24  2    1    2    0    0 -4.34825905656e+00 -1.32223140241e+01 -3.35834251555e+01  8.99326582335e+01  8.22575201838e+01 0.0000e+00 0.0000e+00
       12  1    6    6    0    0 -1.10043877478e+01 -2.80486999853e+01 -5.51654742765e+01  6.28574233700e+01  0.00000000000e+00 0.0000e+00 -1.0000e+00
      -11  1    6    6    0    0 +6.65612869120e+00 +1.48263859612e+01 +2.15820491210e+01  2.70752348634e+01  0.00000000000e+00 0.0000e+00 1.0000e+00
        1  1    1    2  502    0 -1.08055146166e+01 +9.34281762330e+01 -2.64061696571e+01  9.76876095332e+01  0.00000000000e+00 0.0000e+00 -1.0000e+00
       -4  1    1    2    0  502 +1.97762943163e+01 -5.66178767160e+01 -4.27719896018e+01  7.36622622190e+01  0.00000000000e+00 0.0000e+00 1.0000e+00
#  0.1300000e+05  0.1300000e+05  0.1300000e+05  0.1300000e+05
<mgrwt>
<rscale>  2 0.14107561e+03</rscale>
<asrwt>0</asrwt>
<pdfrwt beam="1">  1        2 0.61793877e-01 0.81554875e+02</pdfrwt>
<pdfrwt beam="2">  1       -3 0.13373157e-01 0.16935028e+03</pdfrwt>
<totfact> 0.36807090e+01</totfact>
</mgrwt>
<clustering>
<clus scale="   62.738">  3  6 -1 -1</clus>
<clus scale="   81.555">  2  4  1 -1</clus>
<clus scale="   90.903">  2  5  1 -1</clus>
<clus scale="  169.350">  2  3  1 -1</clus>
</clustering>
<rwgt>
  <wgt id="1">3.93364e-06</wgt>
  <wgt id="2">2.51639e-06</wgt>
  <wgt id="3">1.75225e-06</wgt>
  <wgt id="4">4.41622e-06</wgt>
  <wgt id="5">2.8251e-06</wgt>
  <wgt id="6">1.96722e-06</wgt>
  <wgt id="7">4.70408e-06</wgt>
  <wgt id="8">3.00924e-06</wgt>
  <wgt id="9">2.09544e-06</wgt>
  <wgt id="10">2.8251e-06</wgt>
  <wgt id="11">2.8251e-06</wgt>
  <wgt id="12">2.8251e-06</wgt>
  <wgt id="13">2.8251e-06</wgt>
  <wgt id="14">2.83109e-06</wgt>
  <wgt id="15">2.82007e-06</wgt>
  <wgt id="16">2.81621e-06</wgt>
  <wgt id="17">2.83485e-06</wgt>
  <wgt id="18">2.83625e-06</wgt>
  <wgt id="19">2.80832e-06</wgt>
  <wgt id="20">2.80865e-06</wgt>
  <wgt id="21">2.83613e-06</wgt>
  <wgt id="22">2.83253e-06</wgt>
  <wgt id="23">2.81442e-06</wgt>
  <wgt id="24">2.84018e-06</wgt>
  <wgt id="25">2.81574e-06</wgt>
  <wgt id="26">2.82759e-06</wgt>
  <wgt id="27">2.82166e-06</wgt>
  <wgt id="28">2.83431e-06</wgt>
  <wgt id="29">2.82167e-06</wgt>
  <wgt id="30">2.84478e-06</wgt>
  <wgt id="31">2.79686e-06</wgt>
  <wgt id="32">2.82254e-06</wgt>
  <wgt id="33">2.82748e-06</wgt>
  <wgt id="34">2.79302e-06</wgt>
  <wgt id="35">2.88262e-06</wgt>
  <wgt id="36">2.84083e-06</wgt>
  <wgt id="37">2.81642e-06</wgt>
  <wgt id="38">2.82602e-06</wgt>
  <wgt id="39">2.82438e-06</wgt>
  <wgt id="40">2.82976e-06</wgt>
  <wgt id="41">2.82271e-06</wgt>
  <wgt id="42">2.83239e-06</wgt>
  <wgt id="43">2.80953e-06</wgt>
  <wgt id="44">2.81539e-06</wgt>
  <wgt id="45">2.82876e-06</wgt>
  <wgt id="46">2.85475e-06</wgt>
  <wgt id="47">2.8052e-06</wgt>
  <wgt id="48">2.79849e-06</wgt>
  <wgt id="49">2.83785e-06</wgt>
  <wgt id="50">2.80989e-06</wgt>
  <wgt id="51">2.82275e-06</wgt>
  <wgt id="52">2.7726e-06</wgt>
  <wgt id="53">2.83706e-06</wgt>
</rwgt>
</event>
<event>
 12      0 +2.8251000e-06 3.86750600e+02 7.54677100e-03 1.00559200e-01
        2 -1    0    0  503    0 +0.00000000000e+00 +0.00000000000e+00 +1.20011361760e+03  1.20011361760e+03  0.00000000000e+00 0.0000e+00 -1.0000e+00
        2 -1    0    0  504    0 +0.00000000000e+00 +0.00000000000e+00 -1.41234598540e+03  1.41234598540e+03  0.00000000000e+00 0.0000e+00 -1.0000e+00
       24  2    1    2    0    0 -8.75053996277e+01 -1.42222753045e+02 -4.83026177417e+02  5.17415914913e+02  8.07492073533e+01 0.0000e+00 0.0000e+00
       12  1    3    3    0    0 +4.73952274373e+00 -2.73920315887e-01 -8.18041611347e+01  8.19418018299e+01  0.00000000000e+00 0.0000e+00 -1.0000e+00
      -11  1    3    3    0    0 -9.22449223714e+01 -1.41948832729e+02 -4.01222016282e+02  4.35474113084e+02  0.00000000000e+00 0.0000e+00 1.0000e+00
       24  2    1    2    0    0 -3.44845254709e+02 +2.99547640630e+02 +4.85381508577e+02  6.71479426277e+02  8.15007505637e+01 0.0000e+00 0.0000e+00
        4  1    6    6  505    0 -3.31821070311e+02 +3.03784736831e+02 +4.75491570510e+02  6.54585840559e+02  0.00000000000e+00 0.0000e+00 -1.0000e+00
       -3  1    6    6    0  505 -1.30241843976e+01 -4.23709620120e+00 +9.88993806655e+00  1.68935857177e+01  0.00000000000e+00 0.0000e+00 1.0000e+00
       21  1    1    2  503  502 +5.20246027487e+01 -5.78683797396e+01 +1.89045455561e+02  2.04434568831e+02  0.00000000000e+00 0.0000e+00 -1.0000e+00
       21  1    1    2  504  501 +2.87357283798e+01 -3.71522269242e+01 -4.82178209029e+02  4.84460375381e+02  0.00000000000e+00 0.0000e+00 1.0000e+00
        1  1    1    2  501    0 +4.21410401796e+02 +1.86394223491e+02 -1.19942739759e+01  4.60948365764e+02  0.00000000000e+00 0.0000e+00 -1.0000e+00
        1  1    1    2  502    0 -6.98200785876e+01 -2.48698504412e+02 +9.05393284841e+01  2.73720951834e+02  0.00000000000e+00 0.0000e+00 -1.0000e+00
#  0.1300000e+05  0.1300000e+05  0.7820409e+02  0.4696839e+02  0.1300000e+05  0.1300000e+05
<mgrwt>
<rscale>  2 0.32611349e+03</rscale>
<asrwt>  2 0.46968394e+02 0.78204087e+02</asrwt>
<pdfrwt beam="1">  2        2        2 0.18463286e+00 0.15248895e+00 0.78204087e+02 0.38675058e+03</pdfrwt>
<pdfrwt beam="2">  2        2        2 0.21728400e+00 0.14272059e+00 0.46968394e+02 0.38675058e+03</pdfrwt>
<totfact> 0.92977979e-03</totfact>
</mgrwt>
<clustering>
<clus scale="   46.968">  2  6  1 -1</clus>
<clus scale="   78.204">  1  5  2 -1</clus>
<clus scale="  195.516">  2  3  1 -1</clus>
<clus scale="  310.530">  2  8  1 -1</clus>
<clus scale="  378.297">  2  7  1 -1</clus>
<clus scale="  386.751">  1  3  2 -1</clus>
</clustering>
<rwgt>
  <wgt id="1">4.74561e-06</wgt>
  <wgt id="2">3.20923e-06</wgt>
  <wgt id="3">2.31889e-06</wgt>
  <wgt id="4">4.17758e-06</wgt>
  <wgt id="5">2.8251e-06</wgt>
  <wgt id="6">2.04133e-06</wgt>
  <wgt id="7">3.72352e-06</wgt>
  <wgt id="8">2.51804e-06</wgt>
  <wgt id="9">1.81946e-06</wgt>
  <wgt id="10">4.76723e-06</wgt>
  <wgt id="11">2.8251e-06</wgt>
  <wgt id="12">1.87534e-06</wgt>
  <wgt id="13">2.8251e-06</wgt>
  <wgt id="14">2.82806e-06</wgt>
  <wgt id="15">2.8226e-06</wgt>
  <wgt id="16">2.8066e-06</wgt>
  <wgt id="17">2.8458e-06</wgt>
  <wgt id="18">2.81092e-06</wgt>
  <wgt id="19">2.84626e-06</wgt>
  <wgt id="20">2.81796e-06</wgt>
  <wgt id="21">2.82996e-06</wgt>
  <wgt id="22">2.83373e-06</wgt>
  <wgt id="23">2.81282e-06</wgt>
  <wgt id="24">2.87193e-06</wgt>
  <wgt id="25">2.79631e-06</wgt>
  <wgt id="26">2.82599e-06</wgt>
  <wgt id="27">2.82407e-06</wgt>
  <wgt id="28">2.88052e-06</wgt>
  <wgt id="29">2.80505e-06</wgt>
  <wgt id="30">2.83142e-06</wgt>
  <wgt id="31">2.81717e-06</wgt>
  <wgt id="32">2.82669e-06</wgt>
  <wgt id="33">2.82354e-06</wgt>
  <wgt id="34">2.78218e-06</wgt>
  <wgt id="35">2.90469e-06</wgt>
  <wgt id="36">2.84826e-06</wgt>
  <wgt id="37">2.81141e-06</wgt>
  <wgt id="38">2.81273e-06</wgt>
  <wgt id="39">2.83158e-06</wgt>
  <wgt id="40">2.82816e-06</wgt>
  <wgt id="41">2.82224e-06</wgt>
  <wgt id="42">2.8506e-06</wgt>
  <wgt id="43">2.7852e-06</wgt>
  <wgt id="44">2.82985e-06</wgt>
  <wgt id="45">2.82356e-06</wgt>
  <wgt id="46">2.82246e-06</wgt>
  <wgt id="47">2.82672e-06</wgt>
  <wgt id="48">2.8287e-06</wgt>
  <wgt id="49">2.82867e-06</wgt>
  <wgt id="50">2.81765e-06</wgt>
  <wgt id="51">2.8371e-06</wgt>
  <wgt id="52">2.84397e-06</wgt>
  <wgt id="53">2.82033e-06</wgt>
</rwgt>
</event>
<event>
 11      0 +2.8251000e-06 2.38460800e+02 7.54677100e-03 1.07261900e-01
        2 -1    0    0  501    0 +0.00000000000e+00 +0.00000000000e+00 +5.78384936090e+01  5.78384936090e+01  0.00000000000e+00 0.0000e+00 -1.0000e+00
        2 -1    0    0  503    0 +0.00000000000e+00 +0.00000000000e+00 -2.43695280220e+03  2.43695280220e+03  0.00000000000e+00 0.0000e+00 -1.0000e+00
       24  2    1    2    0    0 +9.97819642992e+01 +1.22939371515e+01 -2.47573493158e+02  2.79269224018e+02  8.11854893396e+01 0.0000e+00 0.0000e+00
        4  1    3    3  504    0 +8.80785795456e+01 -1.86084440313e+01 -1.37545964555e+02  1.64386747426e+02  0.00000000000e+00 0.0000e+00 -1.0000e+00
       -3  1    3    3    0  504 +1.17033847536e+01 +3.09023811828e+01 -1.10027528603e+02  1.14882476592e+02  0.00000000000e+00 0.0000e+00 1.0000e+00
       24  2    1    2    0    0 -8.04498679664e+01 -3.09865379656e+01 -2.85872119362e+02  3.09394223015e+02  8.10528828309e+01 0.0000e+00 0.0000e+00
        4  1    6    6  505    0 -8.48514450271e+01 +3.76115033385e-01 -1.82135134730e+02  2.00930626060e+02  0.00000000000e+00 0.0000e+00 -1.0000e+00
       -3  1    6    6    0  505 +4.40157706062e+00 -3.13626529989e+01 -1.03736984632e+02  1.08463596955e+02  0.00000000000e+00 0.0000e+00 1.0000e+00
       21  1    1    2  503  502 +6.58229330744e+01 +1.00324494544e+02 -1.23935603329e+03  1.24515101092e+03  0.00000000000e+00 0.0000e+00 -1.0000e+00
        1  1    1    2  501    0 -1.69265060150e+01 +6.27122399082e+01 -3.70810450037e+02  3.76456798978e+02  0.00000000000e+00 0.0000e+00 -1.0000e+00
        1  1    1    2  502    0 -6.82285233922e+01 -1.44344133638e+02 -2.35502212741e+02  2.84520038883e+02  0.00000000000e+00 0.0000e+00 -1.0000e+00
#  0.1300000e+05  0.1300000e+05  0.1157519e+03  0.1300000e+05  0.1300000e+05
<mgrwt>
<rscale>  2 0.19999555e+03</rscale>
<asrwt>  1 0.11575194e+03</asrwt>
<pdfrwt beam="1">  1        2 0.88982298e-02 0.11798592e+03</pdfrwt>
<pdfrwt beam="2">  2        2        2 0.37491582e+00 0.14523982e+00 0.11575194e+03 0.23846083e+03</pdfrwt>
<totfact> 0.69387755e-01</totfact>
</mgrwt>
<clustering>
<clus scale="   64.992">  3  6 -1 -1</clus>
<clus scale="  117.986">  1  4  2 -1</clus>
<clus scale="  115.752">  2  5  1 -1</clus>
<clus scale="  148.310">  1  7  2 -1</clus>
<clus scale="  238.461">  1  3  2 -1</clus>
</clustering>
<rwgt>
  <wgt id="1">4.34028e-06</wgt>
  <wgt id="2">2.84688e-06</wgt>
  <wgt id="3">2.01516e-06</wgt>
  <wgt id="4">4.30708e-06</wgt>
  <wgt id="5">2.8251e-06</wgt>
  <wgt id="6">1.99974e-06</wgt>
  <wgt id="7">4.38445e-06</wgt>
  <wgt id="8">2.87585e-06</wgt>
  <wgt id="9">2.03567e-06</wgt>
  <wgt id="10">3.55902e-06</wgt>
  <wgt id="11">2.8251e-06</wgt>
  <wgt id="12">2.34541e-06</wgt>
  <wgt id="13">2.8251e-06</wgt>
  <wgt id="14">2.82854e-06</wgt>
  <wgt id="15">2.82236e-06</wgt>
  <wgt id="16">2.82001e-06</wgt>
  <wgt id="17">2.83067e-06</wgt>
  <wgt id="18">2.81431e-06</wgt>
  <wgt id="19">2.84119e-06</wgt>
  <wgt id="20">2.82453e-06</wgt>
  <wgt id="21">2.82543e-06</wgt>
  <wgt id="22">2.83069e-06</wgt>
  <wgt id="23">2.81701e-06</wgt>
  <wgt id="24">2.85491e-06</wgt>
  <wgt id="25">2.8067e-06</wgt>
  <wgt id="26">2.82763e-06</wgt>
  <wgt id="27">2.82157e-06</wgt>
  <wgt id="28">2.83548e-06</wgt>
  <wgt id="29">2.82107e-06</wgt>
  <wgt id="30">2.83541e-06</wgt>
  <wgt id="31">2.80894e-06</wgt>
  <wgt id="32">2.82197e-06</wgt>
  <wgt id="33">2.8281e-06</wgt>
  <wgt id="34">2.78722e-06</wgt>
  <wgt id="35">2.89339e-06</wgt>
  <wgt id="36">2.83403e-06</wgt>
  <wgt id="37">2.82036e-06</wgt>
  <wgt id="38">2.82237e-06</wgt>
  <wgt id="39">2.82691e-06</wgt>
  <wgt id="40">2.83674e-06</wgt>
  <wgt id="41">2.81488e-06</wgt>
  <wgt id="42">2.83622e-06</wgt>
  <wgt id="43">2.80367e-06</wgt>
  <wgt id="44">2.83111e-06</wgt>
  <wgt id="45">2.82276e-06</wgt>
  <wgt id="46">2.81903e-06</wgt>
  <wgt id="47">2.82905e-06</wgt>
  <wgt id="48">2.82588e-06</wgt>
  <wgt id="49">2.82845e-06</wgt>
  <wgt id="50">2.81208e-06</wgt>
  <wgt id="51">2.82921e-06</wgt>
  <wgt id="52">2.83409e-06</wgt>
  <wgt id="53">2.82309e-06</wgt>
</rwgt>
</event>
<event>
 10      0 +2.8251000e-06 1.63854000e+02 7.54677100e-03 1.10413800e-01
        2 -1    0    0  502    0 +0.00000000000e+00 +0.00000000000e+00 +2.52017898080e+03  2.52017898080e+03  0.00000000000e+00 0.0000e+00 -1.0000e+00
        2 -1    0    0  501    0 +0.00000000000e+00 +0.00000000000e+00 -5.33967981800e+01  5.33967981800e+01  0.00000000000e+00 0.0000e+00 -1.0000e+00
       24  2    1    2    0    0 -8.20276124228e+01 +3.60931397699e+01 +2.60537543912e+02  2.83639836438e+02  6.73832404147e+01 0.0000e+00 0.0000e+00
        4  1    3    3  503    0 -4.08993527553e+01 +5.35938421080e+01 +1.58509506485e+02  1.72250749240e+02  0.00000000000e+00 0.0000e+00 -1.0000e+00
       -3  1    3    3    0  503 -4.11282596674e+01 -1.75007023381e+01 +1.02028037427e+02  1.11389087198e+02  0.00000000000e+00 0.0000e+00 1.0000e+00
       24  2    1    2    0    0 +2.00797751353e+01 -9.86601454183e+01 +4.60761400943e+02  4.78432718547e+02  8.03727311565e+01 0.0000e+00 0.0000e+00
        2  1    6    6  504    0 -1.69540052832e+01 -6.67292000503e+01 +3.58877100922e+02  3.65421671499e+02  0.00000000000e+00 0.0000e+00 -1.0000e+00
       -1  1    6    6    0  504 +3.70337804185e+01 -3.19309453680e+01 +1.01884300021e+02  1.13011047048e+02  0.00000000000e+00 0.0000e+00 1.0000e+00
        1  1    1    2  501    0 -1.92144020595e+02 +1.06155057957e+02 +9.60675562343e+02  9.85436835654e+02  0.00000000000e+00 0.0000e+00 -1.0000e+00
        1  1    1    2  502    0 +2.54091857882e+02 -4.35880523086e+01 +7.84807675421e+02  8.26066388341e+02  0.00000000000e+00 0.0000e+00 -1.0000e+00
#  0.1300000e+05  0.1300000e+05  0.1300000e+05  0.1300000e+05
<mgrwt>
<rscale>  2 0.16229634e+03</rscale>
<asrwt>0</asrwt>
<pdfrwt beam="1">  1        2 0.38771984e+00 0.12157895e+03</pdfrwt>
<pdfrwt beam="2">  1        2 0.82148920e-02 0.11702135e+03</pdfrwt>
<totfact> 0.64820876e+00</totfact>
</mgrwt>
<clustering>
<clus scale="  117.021">  2  3  1 -1</clus>
<clus scale="  121.579">  1  4  2 -1</clus>
<clus scale="  220.829">  1  5  2 -1</clus>
<clus scale="  220.829">  1  3  2 -1</clus>
</clustering>
<rwgt>
  <wgt id="1">4.74632e-06</wgt>
  <wgt id="2">3.06815e-06</wgt>
  <wgt id="3">2.15089e-06</wgt>
  <wgt id="4">4.37033e-06</wgt>
  <wgt id="5">2.8251e-06</wgt>
  <wgt id="6">1.9805e-06</wgt>
  <wgt id="7">4.003e-06</wgt>
  <wgt id="8">2.58764e-06</wgt>
  <wgt id="9">1.81404e-06</wgt>
  <wgt id="10">2.8251e-06</wgt>
  <wgt id="11">2.8251e-06</wgt>
  <wgt id="12">2.8251e-06</wgt>
  <wgt id="13">2.8251e-06</wgt>
  <wgt id="14">2.82837e-06</wgt>
  <wgt id="15">2.82247e-06</wgt>
  <wgt id="16">2.82007e-06</wgt>
  <wgt id="17">2.83063e-06</wgt>
  <wgt id="18">2.81433e-06</wgt>
  <wgt id="19">2.84115e-06</wgt>
  <wgt id="20">2.82442e-06</wgt>
  <wgt id="21">2.82557e-06</wgt>
  <wgt id="22">2.83063e-06</wgt>
  <wgt id="23">2.81722e-06</wgt>
  <wgt id="24">2.8544e-06</wgt>
  <wgt id="25">2.80703e-06</wgt>
  <wgt id="26">2.8277e-06</wgt>
  <wgt id="27">2.82151e-06</wgt>
  <wgt id="28">2.83349e-06</wgt>
  <wgt id="29">2.82181e-06</wgt>
  <wgt id="30">2.83504e-06</wgt>
  <wgt id="31">2.80906e-06</wgt>
  <wgt id="32">2.82147e-06</wgt>
  <wgt id="33">2.82859e-06</wgt>
  <wgt id="34">2.78701e-06</wgt>
  <wgt id="35">2.89369e-06</wgt>
  <wgt id="36">2.83565e-06</wgt>
  <wgt id="37">2.81937e-06</wgt>
  <wgt id="38">2.82235e-06</wgt>
  <wgt id="39">2.82696e-06</wgt>
  <wgt id="40">2.83757e-06</wgt>
  <wgt id="41">2.8143e-06</wgt>
  <wgt id="42">2.83579e-06</wgt>
  <wgt id="43">2.80444e-06</wgt>
  <wgt id="44">2.83147e-06</wgt>
  <wgt id="45">2.82268e-06</wgt>
  <wgt id="46">2.8192e-06</wgt>
  <wgt id="47">2.82898e-06</wgt>
  <wgt id="48">2.82624e-06</wgt>
  <wgt id="49">2.82834e-06</wgt>
  <wgt id="50">2.8118e-06</wgt>
  <wgt id="51">2.82932e-06</wgt>
  <wgt id="52">2.83387e-06</wgt>
  <wgt id="53">2.82308e-06</wgt>
</rwgt>
</event>
<event>
 11      0 +2.8251000e-06 3.39787500e+02 7.54677100e-03 1.02894800e-01
        2 -1    0    0  501    0 +0.00000000000e+00 +0.00000000000e+00 +9.01021889880e+02  9.01021889880e+02  0.00000000000e+00 0.0000e+00 -1.0000e+00
       -1 -1    0    0    0  501 +0.00000000000e+00 +0.00000000000e+00 -8.07243649160e+02  8.07243649160e+02  0.00000000000e+00 0.0000e+00 1.0000e+00
       24  2    1    2    0    0 +1.92783351549e+02 +2.02241435718e+02 -9.83162221397e+01  3.08179352057e+02  8.50965013534e+01 0.0000e+00 0.0000e+00
       14  1    3    3    0    0 +3.93712246980e+00 +3.28719313705e+01 -3.18620084796e+01  4.59483665621e+01  0.00000000000e+00 0.0000e+00 -1.0000e+00
      -13  1    3    3    0    0 +1.88846229079e+02 +1.69369504347e+02 -6.64542136601e+01  2.62230985495e+02  0.00000000000e+00 0.0000e+00 1.0000e+00
       24  2    1    2    0    0 +3.93859310901e+01 +9.39372987312e+01 +4.12923821845e+02  4.32759817537e+02  7.99969334857e+01 0.0000e+00 0.0000e+00
        2  1    6    6  504    0 +4.94907431695e+01 +6.00613321414e+01 +3.65021268601e+02  3.73225432961e+02  0.00000000000e+00 0.0000e+00 -1.0000e+00
       -1  1    6    6    0  504 -1.01048120794e+01 +3.38759665898e+01 +4.79025532440e+01  5.95343845760e+01  0.00000000000e+00 0.0000e+00 1.0000e+00
       21  1    1    2  503  502 -1.06344100125e+01 +6.19982840707e+01 +4.43957390744e+01  7.69925941372e+01  0.00000000000e+00 0.0000e+00 1.0000e+00
        1  1    1    2  502    0 -2.44126470294e+02 +1.30567479503e+02 +8.38921780283e+01  2.89281001340e+02  0.00000000000e+00 0.0000e+00 -1.0000e+00
       -2  1    1    2    0  503 +2.25915976667e+01 -4.88744498023e+02 -3.49117276088e+02  6.01052773969e+02  0.00000000000e+00 0.0000e+00 1.0000e+00
#  0.1300000e+05  0.1300000e+05  0.5973373e+02  0.1300000e+05  0.1300000e+05
<mgrwt>
<rscale>  2 0.27301988e+03</rscale>
<asrwt>  1 0.59733734e+02</asrwt>
<pdfrwt beam="1">  1        2 0.13861875e+00 0.12964086e+03</pdfrwt>
<pdfrwt beam="2">  1       -1 0.12419133e+00 0.31102443e+03</pdfrwt>
<totfact> 0.38631054e-02</totfact>
</mgrwt>
<clustering>
<clus scale="   59.734">  5  6 -1 -1</clus>
<clus scale="  129.641">  1  4  2 -1</clus>
<clus scale="  311.024">  2  3  1 -1</clus>
<clus scale="  349.404">  2  7  1 -1</clus>
<clus scale="  371.211">  1  3  2 -1</clus>
</clustering>
<rwgt>
  <wgt id="1">4.98079e-06</wgt>
  <wgt id="2">3.33262e-06</wgt>
  <wgt id="3">2.39076e-06</wgt>
  <wgt id="4">4.22227e-06</wgt>
  <wgt id="5">2.8251e-06</wgt>
  <wgt id="6">2.02667e-06</wgt>
  <wgt id="7">3.64292e-06</wgt>
  <wgt id="8">2.43746e-06</wgt>
  <wgt id="9">1.74859e-06</wgt>
  <wgt id="10">3.66983e-06</wgt>
  <wgt id="11">2.8251e-06</wgt>
  <wgt id="12">2.30142e-06</wgt>
  <wgt id="13">2.8251e-06</wgt>
  <wgt id="14">2.8294e-06</wgt>
  <wgt id="15">2.82172e-06</wgt>
  <wgt id="16">2.8383e-06</wgt>
  <wgt id="17">2.81045e-06</wgt>
  <wgt id="18">2.8098e-06</wgt>
  <wgt id="19">2.84815e-06</wgt>
  <wgt id="20">2.85316e-06</wgt>
  <wgt id="21">2.80603e-06</wgt>
  <wgt id="22">2.83836e-06</wgt>
  <wgt id="23">2.80594e-06</wgt>
  <wgt id="24">2.89552e-06</wgt>
  <wgt id="25">2.78204e-06</wgt>
  <wgt id="26">2.82567e-06</wgt>
  <wgt id="27">2.82438e-06</wgt>
  <wgt id="28">2.86335e-06</wgt>
  <wgt id="29">2.81152e-06</wgt>
  <wgt id="30">2.81209e-06</wgt>
  <wgt id="31">2.84148e-06</wgt>
  <wgt id="32">2.84289e-06</wgt>
  <wgt id="33">2.80778e-06</wgt>
  <wgt id="34">2.81858e-06</wgt>
  <wgt id="35">2.8371e-06</wgt>
  <wgt id="36">2.79905e-06</wgt>
  <wgt id="37">2.83693e-06</wgt>
  <wgt id="38">2.91259e-06</wgt>
  <wgt id="39">2.78543e-06</wgt>
  <wgt id="40">2.81521e-06</wgt>
  <wgt id="41">2.83587e-06</wgt>
  <wgt id="42">2.83009e-06</wgt>
  <wgt id="43">2.80254e-06</wgt>
  <wgt id="44">2.86092e-06</wgt>
  <wgt id="45">2.81049e-06</wgt>
  <wgt id="46">2.8533e-06</wgt>
  <wgt id="47">2.80786e-06</wgt>
  <wgt id="48">2.81647e-06</wgt>
  <wgt id="49">2.83013e-06</wgt>
  <wgt id="50">2.81561e-06</wgt>
  <wgt id="51">2.84587e-06</wgt>
  <wgt id="52">2.79699e-06</wgt>
  <wgt id="53">2.83273e-06</wgt>
</rwgt>
</event>
<event>
 11      0 +2.8251000e-06 2.04381500e+02 7.54677100e-03 1.09477600e-01
        4 -1    0    0  503    0 +0.00000000000e+00 +0.00000000000e+00 +2.37195585550e+02  2.37195585550e+02  0.00000000000e+00 0.0000e+00 -1.0000e+00
        2 -1    0    0  502    0 +0.00000000000e+00 +0.00000000000e+00 -1.27210402070e+03  1.27210402070e+03  0.00000000000e+00 0.0000e+00 -1.0000e+00
       24  2    1    2    0    0 +1.60911271601e+02 -4.58292946583e+01 +4.13267231648e+01  1.91252837874e+02  8.29276092166e+01 0.0000e+00 0.0000e+00
        2  1    3    3  504    0 +5.18790183156e+01 -3.92998425626e+01 +4.94277838247e+01  8.17252468987e+01  0.00000000000e+00 0.0000e+00 -1.0000e+00
       -1  1    3    3    0  504 +1.09032253285e+02 -6.52945209574e+00 -8.10106065986e+00  1.09527590975e+02  0.00000000000e+00 0.0000e+00 1.0000e+00
       24  2    1    2    0    0 -3.65207984830e+01 -2.59293173180e+01 -2.03048790557e+02  2.23834317297e+02  8.28667124641e+01 0.0000e+00 0.0000e+00
        4  1    6    6  505    0 +2.34359815724e+01 +6.00234621004e+00 -7.61102531702e+01  7.98626572931e+01  0.00000000000e+00 0.0000e+00 -1.0000e+00
       -3  1    6    6    0  505 -5.99567800554e+01 -3.19316635280e+01 -1.26938537387e+02  1.43971660003e+02  0.00000000000e+00 0.0000e+00 1.0000e+00
       21  1    1    2  503  501 +6.22985815478e+00 +8.11989310508e+01 -3.94907096181e+01  9.05074233561e+01  0.00000000000e+00 0.0000e+00 -1.0000e+00
        1  1    1    2  501    0 -2.10835292784e+01 +2.37785033638e+02 -6.02034050557e+02  6.47635109810e+02  0.00000000000e+00 0.0000e+00 -1.0000e+00
        3  1    1    2  502    0 -1.09536801994e+02 -2.47225352712e+02 -2.31661607583e+02  3.56069917913e+02  0.00000000000e+00 0.0000e+00 -1.0000e+00
#  0.1300000e+05  0.1300000e+05  0.8146390e+02  0.1300000e+05  0.1300000e+05
<mgrwt>
<rscale>  2 0.17247111e+03</rscale>
<asrwt>  1 0.81463900e+02</asrwt>
<pdfrwt beam="1">  1        2 0.19570831e+00 0.91314112e+02</pdfrwt>
<pdfrwt beam="2">  2        4        4 0.36491629e-01 0.30701494e-01 0.81463900e+02 0.20438155e+03</pdfrwt>
<totfact> 0.13527766e-01</totfact>
</mgrwt>
<clustering>
<clus scale="   81.464">  1  5  2 -1</clus>
<clus scale="   91.314">  2  4  1 -1</clus>
<clus scale="  180.069">  1  3  2 -1</clus>
<clus scale="  231.977">  1  7  2 -1</clus>
<clus scale="  231.977">  2  3  1 -1</clus>
</clustering>
<rwgt>
  <wgt id="1">4.35639e-06</wgt>
  <wgt id="2">2.82854e-06</wgt>
  <wgt id="3">1.9886e-06</wgt>
  <wgt id="4">4.35109e-06</wgt>
  <wgt id="5">2.8251e-06</wgt>
  <wgt id="6">1.98619e-06</wgt>
  <wgt id="7">4.21914e-06</wgt>
  <wgt id="8">2.73943e-06</wgt>
  <wgt id="9">1.92595e-06</wgt>
  <wgt id="10">3.61415e-06</wgt>
  <wgt id="11">2.8251e-06</wgt>
  <wgt id="12">2.32316e-06</wgt>
  <wgt id="13">2.8251e-06</wgt>
  <wgt id="14">2.83307e-06</wgt>
  <wgt id="15">2.81853e-06</wgt>
  <wgt id="16">2.81839e-06</wgt>
  <wgt id="17">2.83275e-06</wgt>
  <wgt id="18">2.81955e-06</wgt>
  <wgt id="19">2.83309e-06</wgt>
  <wgt id="20">2.82267e-06</wgt>
  <wgt id="21">2.82671e-06</wgt>
  <wgt id="22">2.82592e-06</wgt>
  <wgt id="23">2.82404e-06</wgt>
  <wgt id="24">2.82752e-06</wgt>
  <wgt id="25">2.82333e-06</wgt>
  <wgt id="26">2.83003e-06</wgt>
  <wgt id="27">2.8184e-06</wgt>
  <wgt id="28">2.84635e-06</wgt>
  <wgt id="29">2.81739e-06</wgt>
  <wgt id="30">2.82656e-06</wgt>
  <wgt id="31">2.82198e-06</wgt>
  <wgt id="32">2.82394e-06</wgt>
  <wgt id="33">2.8261e-06</wgt>
  <wgt id="34">2.81871e-06</wgt>
  <wgt id="35">2.83716e-06</wgt>
  <wgt id="36">2.82994e-06</wgt>
  <wgt id="37">2.82255e-06</wgt>
  <wgt id="38">2.81445e-06</wgt>
  <wgt id="39">2.8303e-06</wgt>
  <wgt id="40">2.82166e-06</wgt>
  <wgt id="41">2.82985e-06</wgt>
  <wgt id="42">2.82193e-06</wgt>
  <wgt id="43">2.83254e-06</wgt>
  <wgt id="44">2.82593e-06</wgt>
  <wgt id="45">2.82493e-06</wgt>
  <wgt id="46">2.82803e-06</wgt>
  <wgt id="47">2.82335e-06</wgt>
  <wgt id="48">2.82493e-06</wgt>
  <wgt id="49">2.8277e-06</wgt>
  <wgt id="50">2.85561e-06</wgt>
  <wgt id="51">2.78797e-06</wgt>
  <wgt id="52">2.83311e-06</wgt>
  <wgt id="53">2.82317e-06</wgt>
</rwgt>
</event>
<event>
 11      0 +2.8251000e-06 2.77847800e+02 7.54677100e-03 1.04100100e-01
        2 -1    0    0  503    0 +0.00000000000e+00 +0.00000000000e+00 +3.72049051880e+03  3.72049051880e+03  0.00000000000e+00 0.0000e+00 -1.0000e+00
        2 -1    0    0  502    0 +0.00000000000e+00 +0.00000000000e+00 -1.95405118180e+02  1.95405118180e+02  0.00000000000e+00 0.0000e+00 -1.0000e+00
       24  2    1    2    0    0 -4.49521465752e+01 -2.39015742430e+01 +1.34168924688e+02  1.65521511666e+02  8.24869064716e+01 0.0000e+00 0.0000e+00
       12  1    3    3    0    0 -4.59262364485e+01 +1.33781126342e+01 +1.12840211618e+02  1.22560623570e+02  0.00000000000e+00 0.0000e+00 -1.0000e+00
      -11  1    3    3    0    0 +9.74089873275e-01 -3.72796868772e+01 +2.13287130703e+01  4.29608880958e+01  0.00000000000e+00 0.0000e+00 1.0000e+00
       24  2    1    2    0    0 +5.61232880916e+01 +1.06937230024e+02 +2.45183374300e+02  2.84961917251e+02  8.06412587886e+01 0.0000e+00 0.0000e+00
       12  1    6    6    0    0 +3.73121144103e+01 +1.15332435827e+02 +1.83438389447e+02  2.19871342740e+02  0.00000000000e+00 0.0000e+00 -1.0000e+00
      -11  1    6    6    0    0 +1.88111736812e+01 -8.39520580211e+00 +6.17449848526e+01  6.50905745110e+01  0.00000000000e+00 0.0000e+00 1.0000e+00
       21  1    1    2  503  501 +8.62707349139e+01 +4.12174714029e+01 +2.65456510460e+02  2.82150099410e+02  0.00000000000e+00 0.0000e+00 1.0000e+00
        1  1    1    2  501    0 +4.47030292472e+02 -2.97286521294e+02 +4.94021237627e+02  7.29569970158e+02  0.00000000000e+00 0.0000e+00 -1.0000e+00
        1  1    1    2  502    0 -5.44472168902e+02 +1.73033394109e+02 +2.38625535354e+03  2.45369213849e+03  0.00000000000e+00 0.0000e+00 -1.0000e+00
#  0.1300000e+05  0.1300000e+05  0.9322016e+02  0.1300000e+05  0.1300000e+05
<mgrwt>
<rscale>  2 0.24987821e+03</rscale>
<asrwt>  1 0.93220163e+02</asrwt>
<pdfrwt beam="1">  2        2        2 0.57238316e+00 0.50409801e+00 0.93220163e+02 0.27784776e+03</pdfrwt>
<pdfrwt beam="2">  1        2 0.30062326e-01 0.95560352e+02</pdfrwt>
<totfact> 0.24577098e-02</totfact>
</mgrwt>
<clustering>
<clus scale="   95.560">  2  3  1 -1</clus>
<clus scale="   93.220">  1  5  2 -1</clus>
<clus scale="  146.080">  1  4  2 -1</clus>
<clus scale="  528.472">  1  7  2 -1</clus>
<clus scale="  528.472">  1  3  2 -1</clus>
</clustering>
<rwgt>
  <wgt id="1">5.15228e-06</wgt>
  <wgt id="2">3.42875e-06</wgt>
  <wgt id="3">2.45066e-06</wgt>
  <wgt id="4">4.24519e-06</wgt>
  <wgt id="5">2.8251e-06</wgt>
  <wgt id="6">2.0192e-06</wgt>
  <wgt id="7">3.58004e-06</wgt>
  <wgt id="8">2.38246e-06</wgt>
  <wgt id="9">1.70283e-06</wgt>
  <wgt id="10">3.59234e-06</wgt>
  <wgt id="11">2.8251e-06</wgt>
  <wgt id="12">2.3321e-06</wgt>
  <wgt id="13">2.8251e-06</wgt>
  <wgt id="14">2.82913e-06</wgt>
  <wgt id="15">2.8218e-06</wgt>
  <wgt id="16">2.81403e-06</wgt>
  <wgt id="17">2.83739e-06</wgt>
  <wgt id="18">2.80999e-06</wgt>
  <wgt id="19">2.84739e-06</wgt>
  <wgt id="20">2.818e-06</wgt>
  <wgt id="21">2.82986e-06</wgt>
  <wgt id="22">2.83345e-06</wgt>
  <wgt id="23">2.81306e-06</wgt>
  <wgt id="24">2.87119e-06</wgt>
  <wgt id="25">2.79694e-06</wgt>
  <wgt id="26">2.82401e-06</wgt>
  <wgt id="27">2.8266e-06</wgt>
  <wgt id="28">2.81457e-06</wgt>
  <wgt id="29">2.82826e-06</wgt>
  <wgt id="30">2.82636e-06</wgt>
  <wgt id="31">2.82287e-06</wgt>
  <wgt id="32">2.81273e-06</wgt>
  <wgt id="33">2.837e-06</wgt>
  <wgt id="34">2.79361e-06</wgt>
  <wgt id="35">2.88178e-06</wgt>
  <wgt id="36">2.8424e-06</wgt>
  <wgt id="37">2.81474e-06</wgt>
  <wgt id="38">2.8183e-06</wgt>
  <wgt id="39">2.82831e-06</wgt>
  <wgt id="40">2.84954e-06</wgt>
  <wgt id="41">2.80097e-06</wgt>
  <wgt id="42">2.8396e-06</wgt>
  <wgt id="43">2.79656e-06</wgt>
  <wgt id="44">2.83616e-06</wgt>
  <wgt id="45">2.82068e-06</wgt>
  <wgt id="46">2.82365e-06</wgt>
  <wgt id="47">2.82632e-06</wgt>
  <wgt id="48">2.80512e-06</wgt>
  <wgt id="49">2.84111e-06</wgt>
  <wgt id="50">2.80968e-06</wgt>
  <wgt id="51">2.84036e-06</wgt>
  <wgt id="52">2.82358e-06</wgt>
  <wgt id="53">2.82591e-06</wgt>
</rwgt>
</event>
<event>
 11      0 +2.8251000e-06 2.96522300e+02 7.54677100e-03 1.04128900e-01
        2 -1    0    0  503    0 +0.00000000000e+00 +0.00000000000e+00 +3.67198867370e+03  3.67198867370e+03  0.00000000000e+00 0.0000e+00 -1.0000e+00
       -1 -1    0    0    0  501 +0.00000000000e+00 +0.00000000000e+00 -3.09801363980e+02  3.09801363980e+02  0.00000000000e+00 0.0000e+00 1.0000e+00
       24  2    1    2    0    0 -2.91323370726e+01 +2.03976870829e+01 -1.16907348011e+02  1.44927564291e+02  7.79224753877e+01 0.0000e+00 0.0000e+00
        2  1    3    3  504    0 -2.97665599294e+01 +4.56852010532e+01 -1.01747590486e+02  1.15437246394e+02  0.00000000000e+00 0.0000e+00 -1.0000e+00
       -1  1    3    3    0  504 +6.34222856775e-01 -2.52875139704e+01 -1.51597575257e+01  2.94903178971e+01  0.00000000000e+00 0.0000e+00 1.0000e+00
       24  2    1    2    0    0 -1.18700044233e+02 +9.03079707883e+01 +1.35869395435e+03  1.36924801505e+03  8.09050989187e+01 0.0000e+00 0.0000e+00
       14  1    6    6    0    0 -1.00096062015e+02 +3.71521351862e+01 +6.93051776532e+02  7.01227686086e+02  0.00000000000e+00 0.0000e+00 -1.0000e+00
      -13  1    6    6    0    0 -1.86039822177e+01 +5.31558356021e+01 +6.65642177820e+02  6.68020328961e+02  0.00000000000e+00 0.0000e+00 1.0000e+00
       21  1    1    2  503  501 -2.45597938242e+01 +1.21212831048e+02 +7.97060070582e+01  1.47135248817e+02  0.00000000000e+00 0.0000e+00 -1.0000e+00
        1  1    1    2  502    0 +8.28621964247e+01 +4.09809543845e+02 +1.11274303760e+03  1.18869974070e+03  0.00000000000e+00 0.0000e+00 -1.0000e+00
       -2  1    1    2    0  502 +8.95299787049e+01 -6.41728032763e+02 +9.27951658723e+02  1.13177946882e+03  0.00000000000e+00 0.0000e+00 1.0000e+00
#  0.1300000e+05  0.1300000e+05  0.1281669e+03  0.1300000e+05  0.1300000e+05
<mgrwt>
<rscale>  3 0.24935671e+03</rscale>
<asrwt>0</asrwt>
<pdfrwt beam="1">  1        2 0.56492133e+00 0.17366803e+03</pdfrwt>
<pdfrwt beam="2">  1       -1 0.47661748e-01 0.86850985e+02</pdfrwt>
<totfact> 0.55095515e-03</totfact>
</mgrwt>
<clustering>
<clus scale="   86.851">  2  3  1 -1</clus>
<clus scale="  128.167">  2  5  1 -1</clus>
<clus scale="  173.668">  1  4  2 -1</clus>
<clus scale="  506.285">  2  7  1 -1</clus>
<clus scale="  506.285">  1  3  2 -1</clus>
</clustering>
<rwgt>
  <wgt id="1">6.85391e-06</wgt>
  <wgt id="2">3.72014e-06</wgt>
  <wgt id="3">2.24761e-06</wgt>
  <wgt id="4">5.20491e-06</wgt>
  <wgt id="5">2.8251e-06</wgt>
  <wgt id="6">1.70685e-06</wgt>
  <wgt id="7">4.08428e-06</wgt>
  <wgt id="8">2.21685e-06</wgt>
  <wgt id="9">1.33936e-06</wgt>
  <wgt id="10">2.8251e-06</wgt>
  <wgt id="11">2.8251e-06</wgt>
  <wgt id="12">2.8251e-06</wgt>
  <wgt id="13">2.8251e-06</wgt>
  <wgt id="14">2.8306e-06</wgt>
  <wgt id="15">2.82046e-06</wgt>
  <wgt id="16">2.82458e-06</wgt>
  <wgt id="17">2.82533e-06</wgt>
  <wgt id="18">2.80659e-06</wgt>
  <wgt id="19">2.8526e-06</wgt>
  <wgt id="20">2.84124e-06</wgt>
  <wgt id="21">2.81411e-06</wgt>
  <wgt id="22">2.83819e-06</wgt>
  <wgt id="23">2.80637e-06</wgt>
  <wgt id="24">2.89464e-06</wgt>
  <wgt id="25">2.78275e-06</wgt>
  <wgt id="26">2.82524e-06</wgt>
  <wgt id="27">2.82483e-06</wgt>
  <wgt id="28">2.81442e-06</wgt>
  <wgt id="29">2.82857e-06</wgt>
  <wgt id="30">2.82056e-06</wgt>
  <wgt id="31">2.83e-06</wgt>
  <wgt id="32">2.82334e-06</wgt>
  <wgt id="33">2.82657e-06</wgt>
  <wgt id="34">2.80463e-06</wgt>
  <wgt id="35">2.86183e-06</wgt>
  <wgt id="36">2.85855e-06</wgt>
  <wgt id="37">2.80291e-06</wgt>
  <wgt id="38">2.83802e-06</wgt>
  <wgt id="39">2.81928e-06</wgt>
  <wgt id="40">2.84026e-06</wgt>
  <wgt id="41">2.8103e-06</wgt>
  <wgt id="42">2.84331e-06</wgt>
  <wgt id="43">2.78356e-06</wgt>
  <wgt id="44">2.83537e-06</wgt>
  <wgt id="45">2.82127e-06</wgt>
  <wgt id="46">2.81954e-06</wgt>
  <wgt id="47">2.82967e-06</wgt>
  <wgt id="48">2.83037e-06</wgt>
  <wgt id="49">2.82932e-06</wgt>
  <wgt id="50">2.82706e-06</wgt>
  <wgt id="51">2.82527e-06</wgt>
  <wgt id="52">2.83023e-06</wgt>
  <wgt id="53">2.8241e-06</wgt>
</rwgt>
</event>
<event>
 11      0 +2.8251000e-06 3.89891400e+02 7.54677100e-03 1.02858900e-01
        2 -1    0    0  503    0 +0.00000000000e+00 +0.00000000000e+00 +8.95280515180e+02  8.95280515180e+02  0.00000000000e+00 0.0000e+00 -1.0000e+00
       -1 -1    0    0    0  501 +0.00000000000e+00 +0.00000000000e+00 -5.18063736020e+02  5.18063736020e+02  0.00000000000e+00 0.0000e+00 1.0000e+00
       24  2    1    2    0    0 +7.35985213422e+01 +1.76888533698e+02 -6.39479455368e+01  2.17334562639e+02  8.02413651526e+01 0.0000e+00 0.0000e+00
        4  1    3    3  504    0 +3.72323521335e+01 +1.26576037034e+02 -7.85303787108e+01  1.53540748914e+02  0.00000000000e+00 0.0000e+00 -1.0000e+00
       -3  1    3    3    0  504 +3.63661692088e+01 +5.03124966640e+01 +1.45824331740e+01  6.37938137250e+01  0.00000000000e+00 0.0000e+00 1.0000e+00
       24  2    1    2    0    0 -5.13647061800e+01 -3.77775596240e+00 +3.96026495038e+02  4.07061582312e+02  7.88006506366e+01 0.0000e+00 0.0000e+00
       16  1    6    6    0    0 -1.27949175227e+01 -1.66841674281e+01 +2.05891047831e+01  2.94275821798e+01  0.00000000000e+00 0.0000e+00 -1.0000e+00
      -15  1    6    6    0    0 -3.85697886573e+01 +1.29064114657e+01 +3.75437390255e+02  3.77634000132e+02  1.77700000000e+00 0.0000e+00 1.0000e+00
       21  1    1    2  503  501 +1.06583896460e+02 -1.15105830180e+02 +1.74018726292e+01  1.57836321223e+02  0.00000000000e+00 0.0000e+00 1.0000e+00
        1  1    1    2  502    0 -1.43747753839e+02 +6.28870733827e+01 +2.96821516055e+02  3.35739799735e+02  0.00000000000e+00 0.0000e+00 -1.0000e+00
       -2  1    1    2    0  502 +1.49300422168e+01 -1.20892020938e+02 -2.69085159026e+02  2.95371985292e+02  0.00000000000e+00 0.0000e+00 1.0000e+00
#  0.1300000e+05  0.1300000e+05  0.1513416e+03  0.1300000e+05  0.1300000e+05
<mgrwt>
<rscale>  3 0.27374959e+03</rscale>
<asrwt>0</asrwt>
<pdfrwt beam="1">  1        2 0.13773546e+00 0.94750815e+02</pdfrwt>
<pdfrwt beam="2">  1       -1 0.79702113e-01 0.38989139e+03</pdfrwt>
<totfact> 0.83286028e-02</totfact>
</mgrwt>
<clustering>
<clus scale="   94.751">  1  4  2 -1</clus>
<clus scale="  121.675">  3  7 -1 -1</clus>
<clus scale="  151.342">  1  5  2 -1</clus>
<clus scale="  105.030">  1  6  2 -1</clus>
<clus scale="  389.891">  1  3  2 -1</clus>
</clustering>
<rwgt>
  <wgt id="1">5.81413e-06</wgt>
  <wgt id="2">3.18289e-06</wgt>
  <wgt id="3">1.93428e-06</wgt>
  <wgt id="4">5.16055e-06</wgt>
  <wgt id="5">2.8251e-06</wgt>
  <wgt id="6">1.71684e-06</wgt>
  <wgt id="7">4.61943e-06</wgt>
  <wgt id="8">2.52887e-06</wgt>
  <wgt id="9">1.53682e-06</wgt>
  <wgt id="10">2.8251e-06</wgt>
  <wgt id="11">2.8251e-06</wgt>
  <wgt id="12">2.8251e-06</wgt>
  <wgt id="13">2.8251e-06</wgt>
  <wgt id="14">2.82959e-06</wgt>
  <wgt id="15">2.82138e-06</wgt>
  <wgt id="16">2.83784e-06</wgt>
  <wgt id="17">2.81095e-06</wgt>
  <wgt id="18">2.81002e-06</wgt>
  <wgt id="19">2.8476e-06</wgt>
  <wgt id="20">2.84781e-06</wgt>
  <wgt id="21">2.80996e-06</wgt>
  <wgt id="22">2.83724e-06</wgt>
  <wgt id="23">2.80821e-06</wgt>
  <wgt id="24">2.88866e-06</wgt>
  <wgt id="25">2.78625e-06</wgt>
  <wgt id="26">2.82563e-06</wgt>
  <wgt id="27">2.82456e-06</wgt>
  <wgt id="28">2.8605e-06</wgt>
  <wgt id="29">2.81238e-06</wgt>
  <wgt id="30">2.81758e-06</wgt>
  <wgt id="31">2.83424e-06</wgt>
  <wgt id="32">2.84327e-06</wgt>
  <wgt id="33">2.80773e-06</wgt>
  <wgt id="34">2.81339e-06</wgt>
  <wgt id="35">2.84619e-06</wgt>
  <wgt id="36">2.82721e-06</wgt>
  <wgt id="37">2.81968e-06</wgt>
  <wgt id="38">2.86915e-06</wgt>
  <wgt id="39">2.805e-06</wgt>
  <wgt id="40">2.81443e-06</wgt>
  <wgt id="41">2.83667e-06</wgt>
  <wgt id="42">2.83939e-06</wgt>
  <wgt id="43">2.78815e-06</wgt>
  <wgt id="44">2.84188e-06</wgt>
  <wgt id="45">2.8189e-06</wgt>
  <wgt id="46">2.83253e-06</wgt>
  <wgt id="47">2.82172e-06</wgt>
  <wgt id="48">2.81522e-06</wgt>
  <wgt id="49">2.8318e-06</wgt>
  <wgt id="50">2.82436e-06</wgt>
  <wgt id="51">2.83427e-06</wgt>
  <wgt id="52">2.81624e-06</wgt>
  <wgt id="53">2.82749e-06</wgt>
</rwgt>
</event>
<event>
 10      0 +2.8251000e-06 8.94934000e+02 7.54677100e-03 9.32933900e-02
        2 -1    0    0  501    0 +0.00000000000e+00 +0.00000000000e+00 +2.04314229900e+03  2.04314229900e+03  0.00000000000e+00 0.0000e+00 -1.0000e+00
       -1 -1    0    0    0  501 +0.00000000000e+00 +0.00000000000e+00 -7.94281658410e+02  7.94281658410e+02  0.00000000000e+00 0.0000e+00 1.0000e+00
       24  2    1    2    0    0 -2.59352215448e+02 +5.39891469959e+02 +8.74323427219e+02  1.06287975632e+03  8.07808765666e+01 0.0000e+00 0.0000e+00
        2  1    3    3  503    0 -9.32882119961e+01 +1.25296368900e+02 +1.94287207776e+02  2.49297793135e+02  0.00000000000e+00 0.0000e+00 -1.0000e+00
       -1  1    3    3    0  503 -1.66064003452e+02 +4.14595101059e+02 +6.80036219443e+02  8.13581963185e+02  0.00000000000e+00 0.0000e+00 1.0000e+00
       24  2    1    2    0    0 +1.61485421710e+02 -2.19015331249e+01 -4.86979093189e+02  5.19935375827e+02  8.14060148571e+01 0.0000e+00 0.0000e+00
       14  1    6    6    0    0 +3.34146559331e+01 -4.04564980796e+01 -1.54006803839e+02  1.62700224636e+02  0.00000000000e+00 0.0000e+00 -1.0000e+00
      -13  1    6    6    0    0 +1.28070765777e+02 +1.85549649547e+01 -3.32972289351e+02  3.57235151191e+02  0.00000000000e+00 0.0000e+00 1.0000e+00
        1  1    1    2  502    0 +1.61605942213e+02 -1.70811009957e+02 +8.70311182204e+02  9.01517850932e+02  0.00000000000e+00 0.0000e+00 -1.0000e+00
       -2  1    1    2    0  502 -6.37391484754e+01 -3.47178926877e+02 -8.79487564284e+00  3.53090974330e+02  0.00000000000e+00 0.0000e+00 1.0000e+00
#  0.1300000e+05  0.1300000e+05  0.1300000e+05  0.1300000e+05
<mgrwt>
<rscale>  2 0.60076080e+03</rscale>
<asrwt>0</asrwt>
<pdfrwt beam="1">  1        2 0.31432958e+00 0.89493396e+03</pdfrwt>
<pdfrwt beam="2">  1       -1 0.12219718e+00 0.18173282e+03</pdfrwt>
<totfact> 0.54114718e-02</totfact>
</mgrwt>
<clustering>
<clus scale="  181.733">  2  4  1 -1</clus>
<clus scale="  242.029">  3  5 -1 -1</clus>
<clus scale="  362.731">  2  6  1 -1</clus>
<clus scale="  894.934">  1  3  2 -1</clus>
</clustering>
<rwgt>
  <wgt id="1">5.11049e-06</wgt>
  <wgt id="2">3.56943e-06</wgt>
  <wgt id="3">2.63775e-06</wgt>
  <wgt id="4">4.04479e-06</wgt>
  <wgt id="5">2.8251e-06</wgt>
  <wgt id="6">2.0877e-06</wgt>
  <wgt id="7">3.29512e-06</wgt>
  <wgt id="8">2.30149e-06</wgt>
  <wgt id="9">1.70076e-06</wgt>
  <wgt id="10">2.8251e-06</wgt>
  <wgt id="11">2.8251e-06</wgt>
  <wgt id="12">2.8251e-06</wgt>
  <wgt id="13">2.8251e-06</wgt>
  <wgt id="14">2.82956e-06</wgt>
  <wgt id="15">2.82124e-06</wgt>
  <wgt id="16">2.83021e-06</wgt>
  <wgt id="17">2.81896e-06</wgt>
  <wgt id="18">2.80775e-06</wgt>
  <wgt id="19">2.85055e-06</wgt>
  <wgt id="20">2.85832e-06</wgt>
  <wgt id="21">2.80232e-06</wgt>
  <wgt id="22">2.84025e-06</wgt>
  <wgt id="23">2.80361e-06</wgt>
  <wgt id="24">2.90374e-06</wgt>
  <wgt id="25">2.77715e-06</wgt>
  <wgt id="26">2.82679e-06</wgt>
  <wgt id="27">2.82254e-06</wgt>
  <wgt id="28">2.85804e-06</wgt>
  <wgt id="29">2.81307e-06</wgt>
  <wgt id="30">2.81206e-06</wgt>
  <wgt id="31">2.84117e-06</wgt>
  <wgt id="32">2.83817e-06</wgt>
  <wgt id="33">2.81219e-06</wgt>
  <wgt id="34">2.81134e-06</wgt>
  <wgt id="35">2.84953e-06</wgt>
  <wgt id="36">2.79159e-06</wgt>
  <wgt id="37">2.84177e-06</wgt>
  <wgt id="38">2.9142e-06</wgt>
  <wgt id="39">2.78496e-06</wgt>
  <wgt id="40">2.82216e-06</wgt>
  <wgt id="41">2.82827e-06</wgt>
  <wgt id="42">2.83013e-06</wgt>
  <wgt id="43">2.80322e-06</wgt>
  <wgt id="44">2.85773e-06</wgt>
  <wgt id="45">2.81202e-06</wgt>
  <wgt id="46">2.84961e-06</wgt>
  <wgt id="47">2.80997e-06</wgt>
  <wgt id="48">2.82977e-06</wgt>
  <wgt id="49">2.82704e-06</wgt>
  <wgt id="50">2.81876e-06</wgt>
  <wgt id="51">2.84302e-06</wgt>
  <wgt id="52">2.80214e-06</wgt>
  <wgt id="53">2.83165e-06</wgt>
</rwgt>
</event>
<event>
 10      0 +2.8251000e-06 1.61071000e+02 7.54677100e-03 1.10565900e-01
        2 -1    0    0  501    0 +0.00000000000e+00 +0.00000000000e+00 +2.45975593550e+02  2.45975593550e+02  0.00000000000e+00 0.0000e+00 -1.0000e+00
        2 -1    0    0  502    0 +0.00000000000e+00 +0.00000000000e+00 -6.65286626380e+02  6.65286626380e+02  0.00000000000e+00 0.0000e+00 -1.0000e+00
       24  2    1    2    0    0 +6.41274247564e+01 -6.67309614172e-01 -3.44753935530e+01  1.09011988842e+02  8.11313074139e+01 0.0000e+00 0.0000e+00
        4  1    3    3  503    0 +3.28031649576e+01 -3.87457669367e+01 -3.12183651596e+01  5.95975537248e+01  0.00000000000e+00 0.0000e+00 -1.0000e+00
       -3  1    3    3    0  503 +3.13242597989e+01 +3.80784573226e+01 -3.25702839342e+00  4.94144351174e+01  0.00000000000e+00 0.0000e+00 1.0000e+00
       24  2    1    2    0    0 -4.41775668614e+01 -3.07184019178e+01 +3.57157649529e+01  1.03282975688e+02  8.06007417497e+01 0.0000e+00 0.0000e+00
        2  1    6    6  504    0 -6.38187046459e+01 -3.96095758381e+01 +3.07266591931e+01  8.11533926951e+01  0.00000000000e+00 0.0000e+00 -1.0000e+00
       -1  1    6    6    0  504 +1.96411377845e+01 +8.89117392031e+00 +4.98910575976e+00  2.21295829928e+01  0.00000000000e+00 0.0000e+00 1.0000e+00
        1  1    1    2  501    0 -1.12367415672e+02 +2.63393837060e+02 -3.20872540363e+02  4.30072013348e+02  0.00000000000e+00 0.0000e+00 -1.0000e+00
        1  1    1    2  502    0 +9.24175577769e+01 -2.32008125528e+02 -9.96788638669e+01  2.68895242052e+02  0.00000000000e+00 0.0000e+00 -1.0000e+00
#  0.1300000e+05  0.1300000e+05  0.1300000e+05  0.1300000e+05
<mgrwt>
<rscale>  2 0.16071563e+03</rscale>
<asrwt>0</asrwt>
<pdfrwt beam="1">  1        2 0.37842399e-01 0.96817716e+02</pdfrwt>
<pdfrwt beam="2">  1        2 0.10235179e+00 0.97676815e+02</pdfrwt>
<totfact> 0.11687890e+01</totfact>
</mgrwt>
<clustering>
<clus scale="   96.818">  1  4  2 -1</clus>
<clus scale="   97.677">  2  3  1 -1</clus>
<clus scale="  265.609">  2  5  1 -1</clus>
<clus scale="  265.609">  1  3  2 -1</clus>
</clustering>
<rwgt>
  <wgt id="1">4.40777e-06</wgt>
  <wgt id="2">2.84725e-06</wgt>
  <wgt id="3">1.99511e-06</wgt>
  <wgt id="4">4.37348e-06</wgt>
  <wgt id="5">2.8251e-06</wgt>
  <wgt id="6">1.97959e-06</wgt>
  <wgt id="7">4.26827e-06</wgt>
  <wgt id="8">2.75714e-06</wgt>
  <wgt id="9">1.93197e-06</wgt>
  <wgt id="10">2.8251e-06</wgt>
  <wgt id="11">2.8251e-06</wgt>
  <wgt id="12">2.8251e-06</wgt>
  <wgt id="13">2.8251e-06</wgt>
  <wgt id="14">2.82824e-06</wgt>
  <wgt id="15">2.82245e-06</wgt>
  <wgt id="16">2.82892e-06</wgt>
  <wgt id="17">2.82063e-06</wgt>
  <wgt id="18">2.81386e-06</wgt>
  <wgt id="19">2.84165e-06</wgt>
  <wgt id="20">2.81326e-06</wgt>
  <wgt id="21">2.833e-06</wgt>
  <wgt id="22">2.83039e-06</wgt>
  <wgt id="23">2.81751e-06</wgt>
  <wgt id="24">2.85573e-06</wgt>
  <wgt id="25">2.80607e-06</wgt>
  <wgt id="26">2.82337e-06</wgt>
  <wgt id="27">2.82741e-06</wgt>
  <wgt id="28">2.85715e-06</wgt>
  <wgt id="29">2.81334e-06</wgt>
  <wgt id="30">2.83112e-06</wgt>
  <wgt id="31">2.81702e-06</wgt>
  <wgt id="32">2.83081e-06</wgt>
  <wgt id="33">2.81955e-06</wgt>
  <wgt id="34">2.79546e-06</wgt>
  <wgt id="35">2.87891e-06</wgt>
  <wgt id="36">2.83325e-06</wgt>
  <wgt id="37">2.8218e-06</wgt>
  <wgt id="38">2.81774e-06</wgt>
  <wgt id="39">2.82853e-06</wgt>
  <wgt id="40">2.82543e-06</wgt>
  <wgt id="41">2.82526e-06</wgt>
  <wgt id="42">2.84386e-06</wgt>
  <wgt id="43">2.788e-06</wgt>
  <wgt id="44">2.8363e-06</wgt>
  <wgt id="45">2.82059e-06</wgt>
  <wgt id="46">2.82463e-06</wgt>
  <wgt id="47">2.82596e-06</wgt>
  <wgt id="48">2.78991e-06</wgt>
  <wgt id="49">2.8419e-06</wgt>
  <wgt id="50">2.81279e-06</wgt>
  <wgt id="51">2.83677e-06</wgt>
  <wgt id="52">2.82367e-06</wgt>
  <wgt id="53">2.82517e-06</wgt>
</rwgt>
</event>
<event>
 11      0 +2.8251000e-06 1.20109800e+02 7.54677100e-03 1.15438900e-01
       -1 -1    0    0    0  501 +0.00000000000e+00 +0.00000000000e+00 +6.86836808980e+02  6.86836808980e+02  0.00000000000e+00 0.0000e+00 1.0000e+00
       -1 -1    0    0    0  502 +0.00000000000e+00 +0.00000000000e+00 -2.58060363700e+02  2.58060363700e+02  0.00000000000e+00 0.0000e+00 1.0000e+00
       24  2    1    2    0    0 -1.15901685302e+01 +2.42565374217e+00 +1.99262978637e+02  2.15429123620e+02  8.10170157798e+01 0.0000e+00 0.0000e+00
       14  1    3    3    0    0 +2.92581162794e+01 +1.80455604759e+01 +5.66750812458e+01  6.62853260935e+01  0.00000000000e+00 0.0000e+00 -1.0000e+00
      -13  1    3    3    0    0 -4.08482848095e+01 -1.56199067337e+01 +1.42587897391e+02  1.49143797527e+02  0.00000000000e+00 0.0000e+00 1.0000e+00
       24  2    1    2    0    0 -4.08316701497e+01 -3.52895886341e+00 -9.68322175370e+01  1.32844134151e+02  8.11874792524e+01 0.0000e+00 0.0000e+00
        2  1    6    6  504    0 -1.69358319577e+01 +2.84963759956e+01 -6.10373810401e+00  3.37064009919e+01  0.00000000000e+00 0.0000e+00 -1.0000e+00
       -1  1    6    6    0  504 -2.38958381920e+01 -3.20253348590e+01 -9.07284794330e+01  9.91377331593e+01  0.00000000000e+00 0.0000e+00 1.0000e+00
       21  1    1    2  503  502 +6.02142321835e+01 -3.03607296005e+01 -4.43637354015e+01  8.07196920095e+01  0.00000000000e+00 0.0000e+00 1.0000e+00
       -2  1    1    2    0  503 +5.83536386235e+00 +1.84439403676e+02 +2.86408327088e+02  3.40707609139e+02  0.00000000000e+00 0.0000e+00 1.0000e+00
       -2  1    1    2    0  501 -1.36277573660e+01 -1.52975368954e+02 +8.43010924937e+01  1.75196613760e+02  0.00000000000e+00 0.0000e+00 1.0000e+00
#  0.1300000e+05  0.1300000e+05  0.6743536e+02  0.1300000e+05  0.1300000e+05
<mgrwt>
<rscale>  2 0.11920206e+03</rscale>
<asrwt>  1 0.67435359e+02</asrwt>
<pdfrwt beam="1">  1       -1 0.10566720e+00 0.80946988e+02</pdfrwt>
<pdfrwt beam="2">  2       -1       -1 0.39701594e-01 0.29029041e-01 0.67435359e+02 0.12010975e+03</pdfrwt>
<totfact> 0.13223108e-01</totfact>
</mgrwt>
<clustering>
<clus scale="   67.435">  2  5  1 -1</clus>
<clus scale="   80.947">  1  3  2 -1</clus>
<clus scale="   83.441">  2  4  1 -1</clus>
<clus scale="  172.893">  1  6  2 -1</clus>
<clus scale="  172.893">  1  3  2 -1</clus>
</clustering>
<rwgt>
  <wgt id="1">4.78752e-06</wgt>
  <wgt id="2">3.02364e-06</wgt>
  <wgt id="3">2.08726e-06</wgt>
  <wgt id="4">4.47317e-06</wgt>
  <wgt id="5">2.8251e-06</wgt>
  <wgt id="6">1.9502e-06</wgt>
  <wgt id="7">4.19044e-06</wgt>
  <wgt id="8">2.64654e-06</wgt>
  <wgt id="9">1.82694e-06</wgt>
  <wgt id="10">3.6472e-06</wgt>
  <wgt id="11">2.8251e-06</wgt>
  <wgt id="12">2.31003e-06</wgt>
  <wgt id="13">2.8251e-06</wgt>
  <wgt id="14">2.83144e-06</wgt>
  <wgt id="15">2.81994e-06</wgt>
  <wgt id="16">2.8606e-06</wgt>
  <wgt id="17">2.78562e-06</wgt>
  <wgt id="18">2.80867e-06</wgt>
  <wgt id="19">2.84964e-06</wgt>
  <wgt id="20">2.87762e-06</wgt>
  <wgt id="21">2.78981e-06</wgt>
  <wgt id="22">2.84055e-06</wgt>
  <wgt id="23">2.80265e-06</wgt>
  <wgt id="24">2.90569e-06</wgt>
  <wgt id="25">2.77619e-06</wgt>
  <wgt id="26">2.82682e-06</wgt>
  <wgt id="27">2.82258e-06</wgt>
  <wgt id="28">2.83918e-06</wgt>
  <wgt id="29">2.81998e-06</wgt>
  <wgt id="30">2.81361e-06</wgt>
  <wgt id="31">2.83848e-06</wgt>
  <wgt id="32">2.85365e-06</wgt>
  <wgt id="33">2.7975e-06</wgt>
  <wgt id="34">2.83045e-06</wgt>
  <wgt id="35">2.81414e-06</wgt>
  <wgt id="36">2.81093e-06</wgt>
  <wgt id="37">2.82653e-06</wgt>
  <wgt id="38">2.91444e-06</wgt>
  <wgt id="39">2.78438e-06</wgt>
  <wgt id="40">2.8074e-06</wgt>
  <wgt id="41">2.844e-06</wgt>
  <wgt id="42">2.83266e-06</wgt>
  <wgt id="43">2.78622e-06</wgt>
  <wgt id="44">2.84799e-06</wgt>
  <wgt id="45">2.81634e-06</wgt>
  <wgt id="46">2.83359e-06</wgt>
  <wgt id="47">2.82161e-06</wgt>
  <wgt id="48">2.82218e-06</wgt>
  <wgt id="49">2.8269e-06</wgt>
  <wgt id="50">2.83533e-06</wgt>
  <wgt id="51">2.8181e-06</wgt>
  <wgt id="52">2.80348e-06</wgt>
  <wgt id="53">2.83101e-06</wgt>
</rwgt>
</event>
<event>
 10      0 +2.8251000e-06 1.18207300e+02 7.54677100e-03 1.15808400e-01
        4 -1    0    0  501    0 +0.00000000000e+00 +0.00000000000e+00 +7.20227880770e+01  7.20227880770e+01  0.00000000000e+00 0.0000e+00 -1.0000e+00
        2 -1    0    0  502    0 +0.00000000000e+00 +0.00000000000e+00 -1.29698969030e+03  1.29698969030e+03  0.00000000000e+00 0.0000e+00 -1.0000e+00
       24  2    1    2    0    0 +2.71615080573e+01 -2.29150317955e+01 -4.98913914964e+02  5.06703002246e+02  8.10554855532e+01 0.0000e+00 0.0000e+00
       14  1    3    3    0    0 -1.72943818304e+01 +1.69648607297e+01 -2.28052955582e+02  2.29336112926e+02  0.00000000000e+00 0.0000e+00 -1.0000e+00
      -13  1    3    3    0    0 +4.44558898877e+01 -3.98798925252e+01 -2.70860959382e+02  2.77366889320e+02  0.00000000000e+00 0.0000e+00 1.0000e+00
       24  2    1    2    0    0 +1.83938555380e+00 -2.47589215997e+01 -5.12570451793e+01  9.94332592460e+01  8.15064465289e+01 0.0000e+00 0.0000e+00
        4  1    6    6  503    0 -1.08329306464e+01 -5.21053789767e+01 -4.23239430695e+01  6.79973459897e+01  0.00000000000e+00 0.0000e+00 -1.0000e+00
       -3  1    6    6    0  503 +1.26723162002e+01 +2.73464573770e+01 -8.93310210979e+00  3.14359132563e+01  0.00000000000e+00 0.0000e+00 1.0000e+00
        1  1    1    2  501    0 -9.62714294483e+01 +1.57873814565e+02 -2.06875645464e+02  2.77470470753e+02  0.00000000000e+00 0.0000e+00 -1.0000e+00
        3  1    1    2  502    0 +6.72705358372e+01 -1.10199861170e+02 -4.67920296615e+02  4.85405746132e+02  0.00000000000e+00 0.0000e+00 -1.0000e+00
#  0.1300000e+05  0.1300000e+05  0.1300000e+05  0.1300000e+05
<mgrwt>
<rscale>  2 0.11665934e+03</rscale>
<asrwt>0</asrwt>
<pdfrwt beam="1">  1        2 0.19953688e+00 0.88575788e+02</pdfrwt>
<pdfrwt beam="2">  1        4 0.11080429e-01 0.84026479e+02</pdfrwt>
<totfact> 0.96069550e+00</totfact>
</mgrwt>
<clustering>
<clus scale="   84.026">  1  4  2 -1</clus>
<clus scale="   88.576">  2  3  1 -1</clus>
<clus scale="  157.752">  1  6  2 -1</clus>
<clus scale="  157.751">  2  3  1 -1</clus>
</clustering>
<rwgt>
  <wgt id="1">3.94509e-06</wgt>
  <wgt id="2">2.48734e-06</wgt>
  <wgt id="3">1.71508e-06</wgt>
  <wgt id="4">4.4808e-06</wgt>
  <wgt id="5">2.8251e-06</wgt>
  <wgt id="6">1.94797e-06</wgt>
  <wgt id="7">4.68898e-06</wgt>
  <wgt id="8">2.95636e-06</wgt>
  <wgt id="9">2.03848e-06</wgt>
  <wgt id="10">2.8251e-06</wgt>
  <wgt id="11">2.8251e-06</wgt>
  <wgt id="12">2.8251e-06</wgt>
  <wgt id="13">2.8251e-06</wgt>
  <wgt id="14">2.83048e-06</wgt>
  <wgt id="15">2.82064e-06</wgt>
  <wgt id="16">2.81914e-06</wgt>
  <wgt id="17">2.83166e-06</wgt>
  <wgt id="18">2.82044e-06</wgt>
  <wgt id="19">2.83188e-06</wgt>
  <wgt id="20">2.823e-06</wgt>
  <wgt id="21">2.82655e-06</wgt>
  <wgt id="22">2.82545e-06</wgt>
  <wgt id="23">2.82463e-06</wgt>
  <wgt id="24">2.82512e-06</wgt>
  <wgt id="25">2.8248e-06</wgt>
  <wgt id="26">2.83164e-06</wgt>
  <wgt id="27">2.81616e-06</wgt>
  <wgt id="28">2.8434e-06</wgt>
  <wgt id="29">2.81838e-06</wgt>
  <wgt id="30">2.84235e-06</wgt>
  <wgt id="31">2.79913e-06</wgt>
  <wgt id="32">2.8214e-06</wgt>
  <wgt id="33">2.82862e-06</wgt>
  <wgt id="34">2.79687e-06</wgt>
  <wgt id="35">2.87506e-06</wgt>
  <wgt id="36">2.84654e-06</wgt>
  <wgt id="37">2.81199e-06</wgt>
  <wgt id="38">2.8255e-06</wgt>
  <wgt id="39">2.82493e-06</wgt>
  <wgt id="40">2.82761e-06</wgt>
  <wgt id="41">2.82526e-06</wgt>
  <wgt id="42">2.82646e-06</wgt>
  <wgt id="43">2.82557e-06</wgt>
  <wgt id="44">2.82921e-06</wgt>
  <wgt id="45">2.82357e-06</wgt>
  <wgt id="46">2.82643e-06</wgt>
  <wgt id="47">2.82437e-06</wgt>
  <wgt id="48">2.81931e-06</wgt>
  <wgt id="49">2.83062e-06</wgt>
  <wgt id="50">2.82248e-06</wgt>
  <wgt id="51">2.8082e-06</wgt>
  <wgt id="52">2.82867e-06</wgt>
  <wgt id="53">2.82434e-06</wgt>
</rwgt>
</event>
<event>
 11      0 +2.8251000e-06 3.90292000e+02 7.54677100e-03 1.01600600e-01
       21 -1    0    0  501  503 +0.00000000000e+00 +0.00000000000e+00 +5.58369973520e+02  5.58369973520e+02  0.00000000000e+00 0.0000e+00 -1.0000e+00
        2 -1    0    0  502    0 +0.00000000000e+00 +0.00000000000e+00 -6.02777488350e+02  6.02777488350e+02  0.00000000000e+00 0.0000e+00 -1.0000e+00
       24  2    1    2    0    0 -1.04359344369e+02 -4.66019766713e+01 -1.25312120216e+02  1.87600146401e+02  8.01752484874e+01 0.0000e+00 0.0000e+00
        2  1    3    3  504    0 -5.81727396269e+01 -6.12886294280e+01 -1.05605595100e+02  1.35251267829e+02  0.00000000000e+00 0.0000e+00 -1.0000e+00
       -1  1    3    3    0  504 -4.61866047425e+01 +1.46866527567e+01 -1.97065251152e+01  5.23488785723e+01  0.00000000000e+00 0.0000e+00 1.0000e+00
       24  2    1    2    0    0 +2.99223683047e+01 +5.60427811819e+01 +3.45622290283e+01  1.08249206879e+02  8.05431664827e+01 0.0000e+00 0.0000e+00
       16  1    6    6    0    0 +3.62670525843e+01 +9.72113343650e+00 +4.67221680519e+01  5.99396406889e+01  0.00000000000e+00 0.0000e+00 -1.0000e+00
      -15  1    6    6    0    0 -6.34468427961e+00 +4.63216477454e+01 -1.21599390236e+01  4.83095661905e+01  1.77700000000e+00 0.0000e+00 1.0000e+00
        1  1    1    2  501    0 -2.34281506446e+02 -1.30010238448e+01 -2.70374372800e+02  3.57993229475e+02  0.00000000000e+00 0.0000e+00 -1.0000e+00
        1  1    1    2  502    0 +2.97349577266e+02 -5.67332558719e+01 +1.67497125277e+02  3.45963466855e+02  0.00000000000e+00 0.0000e+00 -1.0000e+00
       -2  1    1    2    0  503 +1.13689052443e+01 +6.02934752061e+01 +1.49219623880e+02  1.61341412259e+02  0.00000000000e+00 0.0000e+00 1.0000e+00
#  0.1300000e+05  0.1300000e+05  0.1300000e+05  0.1300000e+05  0.6135597e+02
<mgrwt>
<rscale>  2 0.30097645e+03</rscale>
<asrwt>  1 0.61355971e+02</asrwt>
<pdfrwt beam="1">  2       21        2 0.85903073e-01 0.61150012e-01 0.61355971e+02 0.39029205e+03</pdfrwt>
<pdfrwt beam="2">  1        2 0.92734998e-01 0.13802601e+03</pdfrwt>
<totfact> 0.11139728e+00</totfact>
</mgrwt>
<clustering>
<clus scale="   61.356">  1  7  2 -1</clus>
<clus scale="  138.026">  2  3  1 -1</clus>
<clus scale="  283.948">  4  6 -1 -1</clus>
<clus scale="  306.519">  2  5  1 -1</clus>
<clus scale="  390.292">  1  3  2 -1</clus>
</clustering>
<rwgt>
  <wgt id="1">4.37037e-06</wgt>
  <wgt id="2">2.94168e-06</wgt>
  <wgt id="3">2.11873e-06</wgt>
  <wgt id="4">4.19717e-06</wgt>
  <wgt id="5">2.8251e-06</wgt>
  <wgt id="6">2.03477e-06</wgt>
  <wgt id="7">4.01209e-06</wgt>
  <wgt id="8">2.70052e-06</wgt>
  <wgt id="9">1.94504e-06</wgt>
  <wgt id="10">3.66474e-06</wgt>
  <wgt id="11">2.8251e-06</wgt>
  <wgt id="12">2.30335e-06</wgt>
  <wgt id="13">2.8251e-06</wgt>
  <wgt id="14">2.83288e-06</wgt>
  <wgt id="15">2.81887e-06</wgt>
  <wgt id="16">2.82288e-06</wgt>
  <wgt id="17">2.82764e-06</wgt>
  <wgt id="18">2.81945e-06</wgt>
  <wgt id="19">2.83374e-06</wgt>
  <wgt id="20">2.81888e-06</wgt>
  <wgt id="21">2.82944e-06</wgt>
  <wgt id="22">2.82614e-06</wgt>
  <wgt id="23">2.82373e-06</wgt>
  <wgt id="24">2.83044e-06</wgt>
  <wgt id="25">2.82174e-06</wgt>
  <wgt id="26">2.82604e-06</wgt>
  <wgt id="27">2.82383e-06</wgt>
  <wgt id="28">2.84642e-06</wgt>
  <wgt id="29">2.81734e-06</wgt>
  <wgt id="30">2.80867e-06</wgt>
  <wgt id="31">2.84504e-06</wgt>
  <wgt id="32">2.82866e-06</wgt>
  <wgt id="33">2.82162e-06</wgt>
  <wgt id="34">2.83375e-06</wgt>
  <wgt id="35">2.81148e-06</wgt>
  <wgt id="36">2.81878e-06</wgt>
  <wgt id="37">2.8308e-06</wgt>
  <wgt id="38">2.80819e-06</wgt>
  <wgt id="39">2.83324e-06</wgt>
  <wgt id="40">2.81813e-06</wgt>
  <wgt id="41">2.83208e-06</wgt>
  <wgt id="42">2.8238e-06</wgt>
  <wgt id="43">2.82706e-06</wgt>
  <wgt id="44">2.82717e-06</wgt>
  <wgt id="45">2.82438e-06</wgt>
  <wgt id="46">2.82923e-06</wgt>
  <wgt id="47">2.82294e-06</wgt>
  <wgt id="48">2.81914e-06</wgt>
  <wgt id="49">2.82824e-06</wgt>
  <wgt id="50">2.85037e-06</wgt>
  <wgt id="51">2.81009e-06</wgt>
  <wgt id="52">2.8305e-06</wgt>
  <wgt id="53">2.8236e-06</wgt>
</rwgt>
</event>
<event>
 11      0 +2.8251000e-06 1.64219300e+02 7.54677100e-03 1.10459900e-01
        2 -1    0    0  503    0 +0.00000000000e+00 +0.00000000000e+00 +3.58860105640e+02  3.58860105640e+02  0.00000000000e+00 0.0000e+00 -1.0000e+00
        4 -1    0    0  501    0 +0.00000000000e+00 +0.00000000000e+00 -6.49882638930e+02  6.49882638930e+02  0.00000000000e+00 0.0000e+00 -1.0000e+00
       24  2    1    2    0    0 -3.02226786953e+01 -6.72944642578e+01 +1.14068552570e+02  1.58035817480e+02  8.07572268835e+01 0.0000e+00 0.0000e+00
        2  1    3    3  504    0 -3.32850776812e+01 -8.48820863144e+01 +9.98414452806e+01  1.35207910897e+02  0.00000000000e+00 0.0000e+00 -1.0000e+00
       -1  1    3    3    0  504 +3.06239898597e+00 +1.75876220566e+01 +1.42271072897e+01  2.28279065835e+01  0.00000000000e+00 0.0000e+00 1.0000e+00
       24  2    1    2    0    0 +6.41996583594e+01 +4.25319616827e+01 -1.08841503963e+02  1.55841736599e+02  8.06821540563e+01 0.0000e+00 0.0000e+00
        2  1    6    6  505    0 +3.53802013496e+01 +6.38307383062e+01 -8.82282203331e+01  1.14500395909e+02  0.00000000000e+00 0.0000e+00 -1.0000e+00
       -1  1    6    6    0  505 +2.88194570098e+01 -2.12987766235e+01 -2.06132836300e+01  4.13413406895e+01  0.00000000000e+00 0.0000e+00 1.0000e+00
       21  1    1    2  503  502 +6.70898798264e+01 +8.57439218427e+01 +1.03170369791e+01  1.09359559985e+02  0.00000000000e+00 0.0000e+00 -1.0000e+00
        1  1    1    2  501    0 -1.25805260729e+02 -2.51585358828e+02 -8.86217462371e+01  2.94916887122e+02  0.00000000000e+00 0.0000e+00 -1.0000e+00
        3  1    1    2  502    0 +2.47384012382e+01 +1.90603939560e+02 -2.17944872639e+02  2.90588743384e+02  0.00000000000e+00 0.0000e+00 -1.0000e+00
#  0.1300000e+05  0.1300000e+05  0.1089560e+03  0.1300000e+05  0.1300000e+05
<mgrwt>
<rscale>  2 0.16181471e+03</rscale>
<asrwt>  1 0.10895596e+03</asrwt>
<pdfrwt beam="1">  2        2        2 0.55209247e-01 0.41786023e-01 0.10895596e+03 0.16421927e+03</pdfrwt>
<pdfrwt beam="2">  1        4 0.99981944e-01 0.11557807e+03</pdfrwt>
<totfact> 0.55747364e-02</totfact>
</mgrwt>
<clustering>
<clus scale="  108.956">  1  5  2 -1</clus>
<clus scale="  108.956">  1  3  2 -1</clus>
<clus scale="  115.578">  2  4  1 -1</clus>
<clus scale="  233.331">  2  7  1 -1</clus>
<clus scale="  233.331">  1  3  2 -1</clus>
</clustering>
<rwgt>
  <wgt id="1">4.10571e-06</wgt>
  <wgt id="2">2.65346e-06</wgt>
  <wgt id="3">1.85992e-06</wgt>
  <wgt id="4">4.37129e-06</wgt>
  <wgt id="5">2.8251e-06</wgt>
  <wgt id="6">1.98023e-06</wgt>
  <wgt id="7">4.43803e-06</wgt>
  <wgt id="8">2.86823e-06</wgt>
  <wgt id="9">2.01046e-06</wgt>
  <wgt id="10">3.56787e-06</wgt>
  <wgt id="11">2.8251e-06</wgt>
  <wgt id="12">2.34167e-06</wgt>
  <wgt id="13">2.8251e-06</wgt>
  <wgt id="14">2.83457e-06</wgt>
  <wgt id="15">2.8172e-06</wgt>
  <wgt id="16">2.82871e-06</wgt>
  <wgt id="17">2.82094e-06</wgt>
  <wgt id="18">2.82107e-06</wgt>
  <wgt id="19">2.83099e-06</wgt>
  <wgt id="20">2.82106e-06</wgt>
  <wgt id="21">2.82776e-06</wgt>
  <wgt id="22">2.8234e-06</wgt>
  <wgt id="23">2.82736e-06</wgt>
  <wgt id="24">2.81537e-06</wgt>
  <wgt id="25">2.83094e-06</wgt>
  <wgt id="26">2.82862e-06</wgt>
  <wgt id="27">2.82026e-06</wgt>
  <wgt id="28">2.83457e-06</wgt>
  <wgt id="29">2.82152e-06</wgt>
  <wgt id="30">2.78833e-06</wgt>
  <wgt id="31">2.87044e-06</wgt>
  <wgt id="32">2.83215e-06</wgt>
  <wgt id="33">2.81839e-06</wgt>
  <wgt id="34">2.86639e-06</wgt>
  <wgt id="35">2.75395e-06</wgt>
  <wgt id="36">2.78544e-06</wgt>
  <wgt id="37">2.85136e-06</wgt>
  <wgt id="38">2.79854e-06</wgt>
  <wgt id="39">2.83771e-06</wgt>
  <wgt id="40">2.81467e-06</wgt>
  <wgt id="41">2.83867e-06</wgt>
  <wgt id="42">2.81425e-06</wgt>
  <wgt id="43">2.84178e-06</wgt>
  <wgt id="44">2.82188e-06</wgt>
  <wgt id="45">2.82638e-06</wgt>
  <wgt id="46">2.83192e-06</wgt>
  <wgt id="47">2.82134e-06</wgt>
  <wgt id="48">2.81865e-06</wgt>
  <wgt id="49">2.82674e-06</wgt>
  <wgt id="50">2.84155e-06</wgt>
  <wgt id="51">2.82873e-06</wgt>
  <wgt id="52">2.82803e-06</wgt>
  <wgt id="53">2.82418e-06</wgt>
</rwgt>
</event>
<event>
 10      0 +2.8251000e-06 2.64906700e+02 7.54677100e-03 1.07401500e-01
        2 -1    0    0  501    0 +0.00000000000e+00 +0.00000000000e+00 +1.70947896110e+03  1.70947896110e+03  0.00000000000e+00 0.0000e+00 -1.0000e+00
       -1 -1    0    0    0  501 +0.00000000000e+00 +0.00000000000e+00 -3.09393246400e+02  3.09393246400e+02  0.00000000000e+00 0.0000e+00 1.0000e+00
       24  2    1    2    0    0 +2.93053966907e+00 -2.60758030312e+02 +1.34037424107e+03  1.36767428803e+03  7.69838528203e+01 0.0000e+00 0.0000e+00
        2  1    3    3  503    0 -1.48306969703e+00 -2.52291927319e+02 +1.32939697994e+03  1.35312591667e+03  0.00000000000e+00 0.0000e+00 -1.0000e+00
       -1  1    3    3    0  503 +4.41360936610e+00 -8.46610299325e+00 +1.09772611303e+01  1.45483713676e+01  0.00000000000e+00 0.0000e+00 1.0000e+00
       24  2    1    2    0    0 -1.71171832746e+01 +9.94890170668e+00 -1.68810976188e+02  1.88345362828e+02  8.11470973539e+01 0.0000e+00 0.0000e+00
        2  1    6    6  504    0 +2.12579718165e+01 -2.22354203247e+01 -4.24829063949e+01  5.24510497371e+01  0.00000000000e+00 0.0000e+00 -1.0000e+00
       -1  1    6    6    0  504 -3.83751550911e+01 +3.21843220314e+01 -1.26328069793e+02  1.35894313091e+02  0.00000000000e+00 0.0000e+00 1.0000e+00
        1  1    1    2  502    0 -1.36376897868e+02 +2.02954983156e+02 +1.38464215267e+02  2.81001285352e+02  0.00000000000e+00 0.0000e+00 -1.0000e+00
       -2  1    1    2    0  502 +1.50563541474e+02 +4.78541454495e+01 +9.00582345535e+01  1.81851271287e+02  0.00000000000e+00 0.0000e+00 1.0000e+00
#  0.1300000e+05  0.1300000e+05  0.1300000e+05  0.1300000e+05
<mgrwt>
<rscale>  2 0.19810013e+03</rscale>
<asrwt>0</asrwt>
<pdfrwt beam="1">  1        2 0.26299676e+00 0.26490666e+03</pdfrwt>
<pdfrwt beam="2">  1       -1 0.47598961e-01 0.82843878e+02</pdfrwt>
<totfact> 0.76985514e-01</totfact>
</mgrwt>
<clustering>
<clus scale="   82.844">  2  4  1 -1</clus>
<clus scale="  153.501">  2  6  1 -1</clus>
<clus scale="  252.405">  2  5  1 -1</clus>
<clus scale="  264.907">  1  3  2 -1</clus>
</clustering>
<rwgt>
  <wgt id="1">4.8668e-06</wgt>
  <wgt id="2">3.1902e-06</wgt>
  <wgt id="3">2.25721e-06</wgt>
  <wgt id="4">4.30983e-06</wgt>
  <wgt id="5">2.8251e-06</wgt>
  <wgt id="6">1.99889e-06</wgt>
  <wgt id="7">3.82552e-06</wgt>
  <wgt id="8">2.50764e-06</wgt>
  <wgt id="9">1.77427e-06</wgt>
  <wgt id="10">2.8251e-06</wgt>
  <wgt id="11">2.8251e-06</wgt>
  <wgt id="12">2.8251e-06</wgt>
  <wgt id="13">2.8251e-06</wgt>
  <wgt id="14">2.83014e-06</wgt>
  <wgt id="15">2.82086e-06</wgt>
  <wgt id="16">2.83097e-06</wgt>
  <wgt id="17">2.81825e-06</wgt>
  <wgt id="18">2.80935e-06</wgt>
  <wgt id="19">2.84842e-06</wgt>
  <wgt id="20">2.84298e-06</wgt>
  <wgt id="21">2.81298e-06</wgt>
  <wgt id="22">2.83651e-06</wgt>
  <wgt id="23">2.80865e-06</wgt>
  <wgt id="24">2.88568e-06</wgt>
  <wgt id="25">2.78806e-06</wgt>
  <wgt id="26">2.82637e-06</wgt>
  <wgt id="27">2.82325e-06</wgt>
  <wgt id="28">2.8539e-06</wgt>
  <wgt id="29">2.8146e-06</wgt>
  <wgt id="30">2.82681e-06</wgt>
  <wgt id="31">2.82223e-06</wgt>
  <wgt id="32">2.83727e-06</wgt>
  <wgt id="33">2.81324e-06</wgt>
  <wgt id="34">2.80096e-06</wgt>
  <wgt id="35">2.86908e-06</wgt>
  <wgt id="36">2.84493e-06</wgt>
  <wgt id="37">2.81148e-06</wgt>
  <wgt id="38">2.83904e-06</wgt>
  <wgt id="39">2.8191e-06</wgt>
  <wgt id="40">2.82154e-06</wgt>
  <wgt id="41">2.82924e-06</wgt>
  <wgt id="42">2.84741e-06</wgt>
  <wgt id="43">2.77714e-06</wgt>
  <wgt id="44">2.83148e-06</wgt>
  <wgt id="45">2.82302e-06</wgt>
  <wgt id="46">2.81709e-06</wgt>
  <wgt id="47">2.83111e-06</wgt>
  <wgt id="48">2.83306e-06</wgt>
  <wgt id="49">2.82452e-06</wgt>
  <wgt id="50">2.8322e-06</wgt>
  <wgt id="51">2.81857e-06</wgt>
  <wgt id="52">2.83702e-06</wgt>
  <wgt id="53">2.82203e-06</wgt>
</rwgt>
</event>
<event>
 12      0 +2.8251000e-06 2.53351500e+02 7.54677100e-03 1.05751400e-01
        2 -1    0    0  504    0 +0.00000000000e+00 +0.00000000000e+00 +6.24080496390e+02  6.24080496390e+02  0.00000000000e+00 0.0000e+00 -1.0000e+00
        2 -1    0    0  503    0 +0.00000000000e+00 +0.00000000000e+00 -8.93778431860e+02  8.93778431860e+02  0.00000000000e+00 0.0000e+00 -1.0000e+00
       24  2    1    2    0    0 -1.21566618742e+02 -1.02233289497e+01 +1.28232359500e+02  1.93918202075e+02  7.92323912672e+01 0.0000e+00 0.0000e+00
        4  1    3    3  505    0 -4.31461351475e+01 +3.39273666371e+01 +4.02754648960e+01  6.80791323218e+01  0.00000000000e+00 0.0000e+00 -1.0000e+00
       -3  1    3    3    0  505 -7.84204835940e+01 -4.41506955868e+01 +8.79568946042e+01  1.25839069753e+02  0.00000000000e+00 0.0000e+00 1.0000e+00
       24  2    1    2    0    0 -1.24490739430e+02 -9.24433940716e+01 -2.05544583292e+02  2.69650933096e+02  8.01206882632e+01 0.0000e+00 0.0000e+00
        2  1    6    6  506    0 -1.33420447476e+02 -9.63383641154e+01 -1.90637129778e+02  2.51842433786e+02  0.00000000000e+00 0.0000e+00 -1.0000e+00
       -1  1    6    6    0  506 +8.92970804590e+00 +3.89497004379e+00 -1.49074535140e+01  1.78084993107e+01  0.00000000000e+00 0.0000e+00 1.0000e+00
       21  1    1    2  503  501 +6.68124119870e+01 +6.39132436116e+01 -6.83822792659e+01  1.14999727052e+02  0.00000000000e+00 0.0000e+00 -1.0000e+00
       21  1    1    2  504  502 +4.03195971928e+01 -3.02943716714e+00 +1.60939163328e+01  4.35185196241e+01  0.00000000000e+00 0.0000e+00 -1.0000e+00
        1  1    1    2  501    0 -2.51758110737e+01 +4.10130384801e+01 +3.63211397311e+02  3.66385602781e+02  0.00000000000e+00 0.0000e+00 -1.0000e+00
        1  1    1    2  502    0 +1.64101160066e+02 +7.69878096737e-01 -5.03308746056e+02  5.29385943621e+02  0.00000000000e+00 0.0000e+00 -1.0000e+00
#  0.1300000e+05  0.1300000e+05  0.9350102e+02  0.4006099e+02  0.1300000e+05  0.1300000e+05
<mgrwt>
<rscale>  2 0.22207933e+03</rscale>
<asrwt>  2 0.40060986e+02 0.93501019e+02</asrwt>
<pdfrwt beam="1">  2        2        2 0.96012384e-01 0.90020943e-01 0.40060986e+02 0.25335145e+03</pdfrwt>
<pdfrwt beam="2">  2        2        2 0.13750437e+00 0.11745383e+00 0.93501019e+02 0.25335145e+03</pdfrwt>
<totfact> 0.44723122e-02</totfact>
</mgrwt>
<clustering>
<clus scale="   40.061">  1  6  2 -1</clus>
<clus scale="   39.169">  3  7 -1 -1</clus>
<clus scale="   93.501">  2  5  1 -1</clus>
<clus scale="  149.576">  2  4  1 -1</clus>
<clus scale="  117.993">  2  8  1 -1</clus>
<clus scale="  253.351">  1  3  2 -1</clus>
</clustering>
<rwgt>
  <wgt id="1">4.64104e-06</wgt>
  <wgt id="2">3.06537e-06</wgt>
  <wgt id="3">2.17986e-06</wgt>
  <wgt id="4">4.27727e-06</wgt>
  <wgt id="5">2.8251e-06</wgt>
  <wgt id="6">2.009e-06</wgt>
  <wgt id="7">3.96809e-06</wgt>
  <wgt id="8">2.62089e-06</wgt>
  <wgt id="9">1.86378e-06</wgt>
  <wgt id="10">4.77367e-06</wgt>
  <wgt id="11">2.8251e-06</wgt>
  <wgt id="12">1.87431e-06</wgt>
  <wgt id="13">2.8251e-06</wgt>
  <wgt id="14">2.82798e-06</wgt>
  <wgt id="15">2.82274e-06</wgt>
  <wgt id="16">2.81786e-06</wgt>
  <wgt id="17">2.83301e-06</wgt>
  <wgt id="18">2.81218e-06</wgt>
  <wgt id="19">2.84422e-06</wgt>
  <wgt id="20">2.81125e-06</wgt>
  <wgt id="21">2.83445e-06</wgt>
  <wgt id="22">2.83184e-06</wgt>
  <wgt id="23">2.81549e-06</wgt>
  <wgt id="24">2.86325e-06</wgt>
  <wgt id="25">2.80153e-06</wgt>
  <wgt id="26">2.82387e-06</wgt>
  <wgt id="27">2.82674e-06</wgt>
  <wgt id="28">2.87375e-06</wgt>
  <wgt id="29">2.80752e-06</wgt>
  <wgt id="30">2.83009e-06</wgt>
  <wgt id="31">2.81875e-06</wgt>
  <wgt id="32">2.82957e-06</wgt>
  <wgt id="33">2.82085e-06</wgt>
  <wgt id="34">2.78984e-06</wgt>
  <wgt id="35">2.89024e-06</wgt>
  <wgt id="36">2.85116e-06</wgt>
  <wgt id="37">2.81114e-06</wgt>
  <wgt id="38">2.81248e-06</wgt>
  <wgt id="39">2.83124e-06</wgt>
  <wgt id="40">2.82521e-06</wgt>
  <wgt id="41">2.8255e-06</wgt>
  <wgt id="42">2.84833e-06</wgt>
  <wgt id="43">2.78543e-06</wgt>
  <wgt id="44">2.83525e-06</wgt>
  <wgt id="45">2.82121e-06</wgt>
  <wgt id="46">2.82591e-06</wgt>
  <wgt id="47">2.82492e-06</wgt>
  <wgt id="48">2.80713e-06</wgt>
  <wgt id="49">2.83558e-06</wgt>
  <wgt id="50">2.8141e-06</wgt>
  <wgt id="51">2.84007e-06</wgt>
  <wgt id="52">2.83385e-06</wgt>
  <wgt id="53">2.82266e-06</wgt>
</rwgt>
</event>
<event>
 10      0 +2.8251000e-06 1.19962800e+02 7.54677100e-03 1.15478400e-01
       -3 -1    0    0    0  501 +0.00000000000e+00 +0.00000000000e+00 +2.39485408390e+02  2.39485408390e+02  0.00000000000e+00 0.0000e+00 1.0000e+00
        2 -1    0    0  501    0 +0.00000000000e+00 +0.00000000000e+00 -1.49053176310e+03  1.49053176310e+03  0.00000000000e+00 0.0000e+00 -1.0000e+00
       24  2    1    2    0    0 -1.33326792106e+01 -6.42437556883e+01 +9.71332050464e+00  1.04742168691e+02  8.10651147347e+01 0.0000e+00 0.0000e+00
       16  1    3    3    0    0 +2.65390704432e+01 -4.06406193126e+01 -1.67937232113e+01  5.13615745222e+01  0.00000000000e+00 0.0000e+00 -1.0000e+00
      -15  1    3    3    0    0 -3.98717496538e+01 -2.36031363757e+01 +2.65070437160e+01  5.33805941685e+01  1.77700000000e+00 0.0000e+00 1.0000e+00
       24  2    1    2    0    0 -6.30090456252e+01 +3.41678398624e+01 -1.27190381900e+03  1.27649161490e+03  8.09563895008e+01 0.0000e+00 0.0000e+00
        4  1    6    6  503    0 -2.04210505733e+01 +5.14423102449e+01 -4.65783738925e+02  4.69060573953e+02  0.00000000000e+00 0.0000e+00 -1.0000e+00
       -3  1    6    6    0  503 -4.25879950519e+01 -1.72744703825e+01 -8.06120080077e+02  8.07431040945e+02  0.00000000000e+00 0.0000e+00 1.0000e+00
        1  1    1    2  502    0 +1.29619452918e+02 -1.08331905516e+02 -6.62989307315e+01  1.81473283278e+02  0.00000000000e+00 0.0000e+00 -1.0000e+00
       -4  1    1    2    0  502 -5.32777280823e+01 +1.38407821342e+02 +7.74430745189e+01  1.67310104624e+02  0.00000000000e+00 0.0000e+00 1.0000e+00
#  0.1300000e+05  0.1300000e+05  0.1300000e+05  0.1300000e+05
<mgrwt>
<rscale>  2 0.11892659e+03</rscale>
<asrwt>0</asrwt>
<pdfrwt beam="1">  1        2 0.22931258e+00 0.10762772e+03</pdfrwt>
<pdfrwt beam="2">  1       -3 0.36843909e-01 0.10395694e+03</pdfrwt>
<totfact> 0.12281856e+00</totfact>
</mgrwt>
<clustering>
<clus scale="  103.957">  1  3  2 -1</clus>
<clus scale="  107.628">  2  4  1 -1</clus>
<clus scale="  133.712">  2  5  1 -1</clus>
<clus scale="  133.712">  2  3  1 -1</clus>
</clustering>
<rwgt>
  <wgt id="1">4.74838e-06</wgt>
  <wgt id="2">2.99837e-06</wgt>
  <wgt id="3">2.06956e-06</wgt>
  <wgt id="4">4.47398e-06</wgt>
  <wgt id="5">2.8251e-06</wgt>
  <wgt id="6">1.94996e-06</wgt>
  <wgt id="7">4.1465e-06</wgt>
  <wgt id="8">2.61831e-06</wgt>
  <wgt id="9">1.80723e-06</wgt>
  <wgt id="10">2.8251e-06</wgt>
  <wgt id="11">2.8251e-06</wgt>
  <wgt id="12">2.8251e-06</wgt>
  <wgt id="13">2.8251e-06</wgt>
  <wgt id="14">2.83296e-06</wgt>
  <wgt id="15">2.81862e-06</wgt>
  <wgt id="16">2.79232e-06</wgt>
  <wgt id="17">2.86201e-06</wgt>
  <wgt id="18">2.84584e-06</wgt>
  <wgt id="19">2.79394e-06</wgt>
  <wgt id="20">2.802e-06</wgt>
  <wgt id="21">2.84054e-06</wgt>
  <wgt id="22">2.85148e-06</wgt>
  <wgt id="23">2.78769e-06</wgt>
  <wgt id="24">2.83624e-06</wgt>
  <wgt id="25">2.81803e-06</wgt>
  <wgt id="26">2.82556e-06</wgt>
  <wgt id="27">2.82441e-06</wgt>
  <wgt id="28">2.84856e-06</wgt>
  <wgt id="29">2.8165e-06</wgt>
  <wgt id="30">2.83874e-06</wgt>
  <wgt id="31">2.80679e-06</wgt>
  <wgt id="32">2.81914e-06</wgt>
  <wgt id="33">2.83067e-06</wgt>
  <wgt id="34">2.78912e-06</wgt>
  <wgt id="35">2.89211e-06</wgt>
  <wgt id="36">2.84088e-06</wgt>
  <wgt id="37">2.81574e-06</wgt>
  <wgt id="38">2.80819e-06</wgt>
  <wgt id="39">2.83336e-06</wgt>
  <wgt id="40">2.8322e-06</wgt>
  <wgt id="41">2.81941e-06</wgt>
  <wgt id="42">2.83824e-06</wgt>
  <wgt id="43">2.80215e-06</wgt>
  <wgt id="44">2.80404e-06</wgt>
  <wgt id="45">2.83325e-06</wgt>
  <wgt id="46">2.85538e-06</wgt>
  <wgt id="47">2.80187e-06</wgt>
  <wgt id="48">2.82076e-06</wgt>
  <wgt id="49">2.83079e-06</wgt>
  <wgt id="50">2.83339e-06</wgt>
  <wgt id="51">2.81069e-06</wgt>
  <wgt id="52">2.76593e-06</wgt>
  <wgt id="53">2.86004e-06</wgt>
</rwgt>
</event>
<event>
 11      0 +2.8251000e-06 4.09044100e+02 7.54677100e-03 9.97140300e-02
        2 -1    0    0  502    0 +0.00000000000e+00 +0.00000000000e+00 +3.51097730470e+02  3.51097730470e+02  0.00000000000e+00 0.0000e+00 -1.0000e+00
        2 -1    0    0  503    0 +0.00000000000e+00 +0.00000000000e+00 -1.03749536240e+03  1.03749536240e+03  0.00000000000e+00 0.0000e+00 -1.0000e+00
       24  2    1    2    0    0 +3.53685279605e+01 -1.86374638826e+02 -2.42719484491e+02  3.18409631907e+02  8.05326441388e+01 0.0000e+00 0.0000e+00
        2  1    3    3  504    0 -7.38317378611e+00 -1.48682996565e+02 -1.69132491554e+02  2.25315211253e+02  0.00000000000e+00 0.0000e+00 -1.0000e+00
       -1  1    3    3    0  504 +4.27517017466e+01 -3.76916422605e+01 -7.35869929376e+01  9.30944206542e+01  0.00000000000e+00 0.0000e+00 1.0000e+00
       24  2    1    2    0    0 -1.90385284866e+02 +4.94231009128e+01 +8.14841615733e+01  2.27897997446e+02  8.12934748606e+01 0.0000e+00 0.0000e+00
       16  1    6    6    0    0 -1.56592935257e+02 +6.09415323803e+00 +7.06079998522e+01  1.71883610968e+02  0.00000000000e+00 0.0000e+00 -1.0000e+00
      -15  1    6    6    0    0 -3.37923496093e+01 +4.33289476748e+01 +1.08761617211e+01  5.60143864780e+01  1.77700000000e+00 0.0000e+00 1.0000e+00
       21  1    1    2  503  501 -3.38293210179e+01 +2.79757750590e+01 -1.13234888210e+02  1.21446312660e+02  0.00000000000e+00 0.0000e+00 1.0000e+00
        1  1    1    2  501    0 +1.11699422518e+02 +2.90257957323e+02 -4.21230963527e+02  5.23604781695e+02  0.00000000000e+00 0.0000e+00 -1.0000e+00
        1  1    1    2  502    0 +7.71466554059e+01 -1.81282194469e+02 +9.30354272496e+00  1.97234369163e+02  0.00000000000e+00 0.0000e+00 -1.0000e+00
#  0.1300000e+05  0.1300000e+05  0.4389837e+02  0.1300000e+05  0.1300000e+05
<mgrwt>
<rscale>  2 0.34850909e+03</rscale>
<asrwt>  1 0.43898371e+02</asrwt>
<pdfrwt beam="1">  1        2 0.54015035e-01 0.21554904e+03</pdfrwt>
<pdfrwt beam="2">  2        2        2 0.15961467e+00 0.13969575e+00 0.43898371e+02 0.40904408e+03</pdfrwt>
<totfact> 0.48579235e-01</totfact>
</mgrwt>
<clustering>
<clus scale="   43.898">  2  5  1 -1</clus>
<clus scale="  193.246">  3  7 -1 -1</clus>
<clus scale="  215.549">  1  4  2 -1</clus>
<clus scale="  322.069">  1  6  2 -1</clus>
<clus scale="  409.044">  1  3  2 -1</clus>
</clustering>
<rwgt>
  <wgt id="1">4.41412e-06</wgt>
  <wgt id="2">2.99622e-06</wgt>
  <wgt id="3">2.17059e-06</wgt>
  <wgt id="4">4.16202e-06</wgt>
  <wgt id="5">2.8251e-06</wgt>
  <wgt id="6">2.04662e-06</wgt>
  <wgt id="7">3.91847e-06</wgt>
  <wgt id="8">2.65978e-06</wgt>
  <wgt id="9">1.92686e-06</wgt>
  <wgt id="10">3.7339e-06</wgt>
  <wgt id="11">2.8251e-06</wgt>
  <wgt id="12">2.27786e-06</wgt>
  <wgt id="13">2.8251e-06</wgt>
  <wgt id="14">2.82812e-06</wgt>
  <wgt id="15">2.82252e-06</wgt>
  <wgt id="16">2.82102e-06</wgt>
  <wgt id="17">2.82952e-06</wgt>
  <wgt id="18">2.81278e-06</wgt>
  <wgt id="19">2.8433e-06</wgt>
  <wgt id="20">2.81368e-06</wgt>
  <wgt id="21">2.83277e-06</wgt>
  <wgt id="22">2.83149e-06</wgt>
  <wgt id="23">2.81598e-06</wgt>
  <wgt id="24">2.86126e-06</wgt>
  <wgt id="25">2.80271e-06</wgt>
  <wgt id="26">2.82402e-06</wgt>
  <wgt id="27">2.82659e-06</wgt>
  <wgt id="28">2.867e-06</wgt>
  <wgt id="29">2.80988e-06</wgt>
  <wgt id="30">2.83027e-06</wgt>
  <wgt id="31">2.81838e-06</wgt>
  <wgt id="32">2.82972e-06</wgt>
  <wgt id="33">2.82063e-06</wgt>
  <wgt id="34">2.79163e-06</wgt>
  <wgt id="35">2.88658e-06</wgt>
  <wgt id="36">2.84035e-06</wgt>
  <wgt id="37">2.81718e-06</wgt>
  <wgt id="38">2.81506e-06</wgt>
  <wgt id="39">2.82999e-06</wgt>
  <wgt id="40">2.82576e-06</wgt>
  <wgt id="41">2.82481e-06</wgt>
  <wgt id="42">2.84648e-06</wgt>
  <wgt id="43">2.78678e-06</wgt>
  <wgt id="44">2.83455e-06</wgt>
  <wgt id="45">2.82143e-06</wgt>
  <wgt id="46">2.82469e-06</wgt>
  <wgt id="47">2.82574e-06</wgt>
  <wgt id="48">2.8024e-06</wgt>
  <wgt id="49">2.83755e-06</wgt>
  <wgt id="50">2.81464e-06</wgt>
  <wgt id="51">2.83794e-06</wgt>
  <wgt id="52">2.83059e-06</wgt>
  <wgt id="53">2.82354e-06</wgt>
</rwgt>
</event>
<event>
 11      0 +2.8251000e-06 1.63884400e+02 7.54677100e-03 1.11367600e-01
        2 -1    0    0  502    0 +0.00000000000e+00 +0.00000000000e+00 +1.97316052170e+03  1.97316052170e+03  0.00000000000e+00 0.0000e+00 -1.0000e+00
        4 -1    0    0  503    0 +0.00000000000e+00 +0.00000000000e+00 -9.77555344700e+01  9.77555344700e+01  0.00000000000e+00 0.0000e+00 -1.0000e+00
       24  2    1    2    0    0 -6.89555052767e+01 +1.71406291821e+01 +4.72507665002e+01  1.17976133598e+02  8.14682164234e+01 0.0000e+00 0.0000e+00
       14  1    3    3    0    0 -3.76714398651e+01 -7.36900601109e+00 -1.73542609118e+01  4.21261201975e+01  0.00000000000e+00 0.0000e+00 -1.0000e+00
      -13  1    3    3    0    0 -3.12840654116e+01 +2.45096351932e+01 +6.46050274120e+01  7.58500134007e+01  0.00000000000e+00 0.0000e+00 1.0000e+00
       24  2    1    2    0    0 -4.35774436451e+01 -1.09280342013e+02 +6.73207976448e+02  6.87813326175e+02  7.76981683486e+01 0.0000e+00 0.0000e+00
        2  1    6    6  504    0 -3.36305161836e+01 -1.06621450200e+02 +4.27102658030e+02  4.41492724468e+02  0.00000000000e+00 0.0000e+00 -1.0000e+00
       -1  1    6    6    0  504 -9.94692746156e+00 -2.65889181340e+00 +2.46105318418e+02  2.46320601707e+02  0.00000000000e+00 0.0000e+00 1.0000e+00
       21  1    1    2  503  501 +9.30763922226e+01 +1.92008438494e+01 +2.69941368144e+02  2.86182161270e+02  0.00000000000e+00 0.0000e+00 -1.0000e+00
        1  1    1    2  501    0 +1.28167386151e+02 +9.22414195174e+01 +8.47879504027e+02  8.62458701444e+02  0.00000000000e+00 0.0000e+00 -1.0000e+00
        3  1    1    2  502    0 -1.08710829452e+02 -1.93025505354e+01 +3.71253721104e+01  1.16485733683e+02  0.00000000000e+00 0.0000e+00 -1.0000e+00
#  0.1300000e+05  0.1300000e+05  0.7152684e+02  0.1300000e+05  0.1300000e+05
<mgrwt>
<rscale>  2 0.15270340e+03</rscale>
<asrwt>  1 0.71526840e+02</asrwt>
<pdfrwt beam="1">  1        2 0.30356316e+00 0.14303396e+03</pdfrwt>
<pdfrwt beam="2">  1        4 0.15039313e-01 0.10781600e+03</pdfrwt>
<totfact> 0.29072532e-01</totfact>
</mgrwt>
<clustering>
<clus scale="   71.527">  5  6 -1 -1</clus>
<clus scale="  107.816">  2  3  1 -1</clus>
<clus scale="  143.034">  1  4  2 -1</clus>
<clus scale="  163.631">  2  7  1 -1</clus>
<clus scale="  187.774">  1  3  2 -1</clus>
</clustering>
<rwgt>
  <wgt id="1">4.24369e-06</wgt>
  <wgt id="2">2.7309e-06</wgt>
  <wgt id="3">1.90893e-06</wgt>
  <wgt id="4">4.39007e-06</wgt>
  <wgt id="5">2.8251e-06</wgt>
  <wgt id="6">1.97477e-06</wgt>
  <wgt id="7">4.30057e-06</wgt>
  <wgt id="8">2.7675e-06</wgt>
  <wgt id="9">1.93451e-06</wgt>
  <wgt id="10">3.63665e-06</wgt>
  <wgt id="11">2.8251e-06</wgt>
  <wgt id="12">2.31418e-06</wgt>
  <wgt id="13">2.8251e-06</wgt>
  <wgt id="14">2.83165e-06</wgt>
  <wgt id="15">2.81973e-06</wgt>
  <wgt id="16">2.81488e-06</wgt>
  <wgt id="17">2.83649e-06</wgt>
  <wgt id="18">2.81932e-06</wgt>
  <wgt id="19">2.83359e-06</wgt>
  <wgt id="20">2.82526e-06</wgt>
  <wgt id="21">2.82495e-06</wgt>
  <wgt id="22">2.82646e-06</wgt>
  <wgt id="23">2.8231e-06</wgt>
  <wgt id="24">2.83037e-06</wgt>
  <wgt id="25">2.82161e-06</wgt>
  <wgt id="26">2.83166e-06</wgt>
  <wgt id="27">2.81612e-06</wgt>
  <wgt id="28">2.8393e-06</wgt>
  <wgt id="29">2.81978e-06</wgt>
  <wgt id="30">2.84098e-06</wgt>
  <wgt id="31">2.80209e-06</wgt>
  <wgt id="32">2.81831e-06</wgt>
  <wgt id="33">2.83152e-06</wgt>
  <wgt id="34">2.79827e-06</wgt>
  <wgt id="35">2.87315e-06</wgt>
  <wgt id="36">2.83742e-06</wgt>
  <wgt id="37">2.81845e-06</wgt>
  <wgt id="38">2.8261e-06</wgt>
  <wgt id="39">2.82513e-06</wgt>
  <wgt id="40">2.83084e-06</wgt>
  <wgt id="41">2.82135e-06</wgt>
  <wgt id="42">2.82393e-06</wgt>
  <wgt id="43">2.83e-06</wgt>
  <wgt id="44">2.82872e-06</wgt>
  <wgt id="45">2.82378e-06</wgt>
  <wgt id="46">2.82633e-06</wgt>
  <wgt id="47">2.8243e-06</wgt>
  <wgt id="48">2.82738e-06</wgt>
  <wgt id="49">2.82819e-06</wgt>
  <wgt id="50">2.83083e-06</wgt>
  <wgt id="51">2.80107e-06</wgt>
  <wgt id="52">2.83074e-06</wgt>
  <wgt id="53">2.82392e-06</wgt>
</rwgt>
</event>
<event>
 10      0 +2.8251000e-06 2.16496000e+02 7.54677100e-03 1.06234100e-01
        2 -1    0    0  502    0 +0.00000000000e+00 +0.00000000000e+00 +1.02887931630e+03  1.02887931630e+03  0.00000000000e+00 0.0000e+00 -1.0000e+00
        2 -1    0    0  501    0 +0.00000000000e+00 +0.00000000000e+00 -4.49630486210e+02  4.49630486210e+02  0.00000000000e+00 0.0000e+00 -1.0000e+00
       24  2    1    2    0    0 +5.49535367047e+01 +1.25356611241e+02 +4.74211904554e+02  5.00181797421e+02  8.10600325238e+01 0.0000e+00 0.0000e+00
       14  1    3    3    0    0 +8.14137052388e+00 +1.20489283799e+01 +5.25058228129e+00  1.54605046297e+01  0.00000000000e+00 0.0000e+00 -1.0000e+00
      -13  1    3    3    0    0 +4.68121661808e+01 +1.13307682861e+02 +4.68961322273e+02  4.84721292792e+02  0.00000000000e+00 0.0000e+00 1.0000e+00
       24  2    1    2    0    0 -6.06244422075e+01 -1.36568629156e+02 -2.51960424200e+02  3.04181309126e+02  8.19505948477e+01 0.0000e+00 0.0000e+00
        4  1    6    6  503    0 -1.87057613069e+01 -1.19027063127e+02 -1.48862878364e+02  1.91513717048e+02  0.00000000000e+00 0.0000e+00 -1.0000e+00
       -3  1    6    6    0  503 -4.19186809006e+01 -1.75415660289e+01 -1.03097545836e+02  1.12667592078e+02  0.00000000000e+00 0.0000e+00 1.0000e+00
        1  1    1    2  501    0 -1.38774186305e+02 +2.37710084122e+02 +2.84587164212e+02  3.95921978314e+02  0.00000000000e+00 0.0000e+00 -1.0000e+00
        1  1    1    2  502    0 +1.44445091808e+02 -2.26498066207e+02 +7.24101855242e+01  2.78224717649e+02  0.00000000000e+00 0.0000e+00 -1.0000e+00
#  0.1300000e+05  0.1300000e+05  0.1300000e+05  0.1300000e+05
<mgrwt>
<rscale>  2 0.21469892e+03</rscale>
<asrwt>0</asrwt>
<pdfrwt beam="1">  1        2 0.15828913e+00 0.15880271e+03</pdfrwt>
<pdfrwt beam="2">  1        2 0.69173921e-01 0.16418679e+03</pdfrwt>
<totfact> 0.32523190e+00</totfact>
</mgrwt>
<clustering>
<clus scale="  158.803">  1  3  2 -1</clus>
<clus scale="  164.187">  2  4  1 -1</clus>
<clus scale="  285.471">  1  5  2 -1</clus>
<clus scale="  285.471">  1  3  2 -1</clus>
</clustering>
<rwgt>
  <wgt id="1">4.67753e-06</wgt>
  <wgt id="2">3.08259e-06</wgt>
  <wgt id="3">2.18887e-06</wgt>
  <wgt id="4">4.28682e-06</wgt>
  <wgt id="5">2.8251e-06</wgt>
  <wgt id="6">2.00603e-06</wgt>
  <wgt id="7">3.94338e-06</wgt>
  <wgt id="8">2.59877e-06</wgt>
  <wgt id="9">1.84532e-06</wgt>
  <wgt id="10">2.8251e-06</wgt>
  <wgt id="11">2.8251e-06</wgt>
  <wgt id="12">2.8251e-06</wgt>
  <wgt id="13">2.8251e-06</wgt>
  <wgt id="14">2.82801e-06</wgt>
  <wgt id="15">2.82267e-06</wgt>
  <wgt id="16">2.81985e-06</wgt>
  <wgt id="17">2.83082e-06</wgt>
  <wgt id="18">2.81246e-06</wgt>
  <wgt id="19">2.84382e-06</wgt>
  <wgt id="20">2.81242e-06</wgt>
  <wgt id="21">2.83361e-06</wgt>
  <wgt id="22">2.83171e-06</wgt>
  <wgt id="23">2.81572e-06</wgt>
  <wgt id="24">2.86239e-06</wgt>
  <wgt id="25">2.80209e-06</wgt>
  <wgt id="26">2.82389e-06</wgt>
  <wgt id="27">2.82681e-06</wgt>
  <wgt id="28">2.87009e-06</wgt>
  <wgt id="29">2.80883e-06</wgt>
  <wgt id="30">2.83022e-06</wgt>
  <wgt id="31">2.81854e-06</wgt>
  <wgt id="32">2.82975e-06</wgt>
  <wgt id="33">2.82067e-06</wgt>
  <wgt id="34">2.79044e-06</wgt>
  <wgt id="35">2.88892e-06</wgt>
  <wgt id="36">2.84452e-06</wgt>
  <wgt id="37">2.81506e-06</wgt>
  <wgt id="38">2.81434e-06</wgt>
  <wgt id="39">2.83037e-06</wgt>
  <wgt id="40">2.82566e-06</wgt>
  <wgt id="41">2.82503e-06</wgt>
  <wgt id="42">2.84743e-06</wgt>
  <wgt id="43">2.78591e-06</wgt>
  <wgt id="44">2.83515e-06</wgt>
  <wgt id="45">2.8212e-06</wgt>
  <wgt id="46">2.8254e-06</wgt>
  <wgt id="47">2.82531e-06</wgt>
  <wgt id="48">2.80347e-06</wgt>
  <wgt id="49">2.83716e-06</wgt>
  <wgt id="50">2.81427e-06</wgt>
  <wgt id="51">2.83917e-06</wgt>
  <wgt id="52">2.83153e-06</wgt>
  <wgt id="53">2.82328e-06</wgt>
</rwgt>
</event>
<event>
 10      0 +2.8251000e-06 5.42231800e+02 7.54677100e-03 9.78906700e-02
        2 -1    0    0  501    0 +0.00000000000e+00 +0.00000000000e+00 +1.00202284410e+03  1.00202284410e+03  0.00000000000e+00 0.0000e+00 -1.0000e+00
        2 -1    0    0  502    0 +0.00000000000e+00 +0.00000000000e+00 -2.67513673200e+02  2.67513673200e+02  0.00000000000e+00 0.0000e+00 -1.0000e+00
       24  2    1    2    0    0 +1.53473558279e+01 -1.14437284111e+02 -1.31500667025e+02  1.92862737815e+02  8.10689637515e+01 0.0000e+00 0.0000e+00
        4  1    3    3  503    0 -7.73865448588e+00 -7.78311243130e+01 -1.27264375088e+02  1.49378016627e+02  0.00000000000e+00 0.0000e+00 -1.0000e+00
       -3  1    3    3    0  503 +2.30860103138e+01 -3.66061597979e+01 -4.23629193744e+00  4.34847211873e+01  0.00000000000e+00 0.0000e+00 1.0000e+00
       24  2    1    2    0    0 -1.39985741284e+00 -1.46493609380e+02 +1.54063284974e+02  2.26803921252e+02  7.90075042518e+01 0.0000e+00 0.0000e+00
        4  1    6    6  504    0 -1.14079335133e+01 -1.51134801770e+02 +1.27571486585e+02  1.98106924267e+02  0.00000000000e+00 0.0000e+00 -1.0000e+00
       -3  1    6    6    0  504 +1.00080761004e+01 +4.64119238983e+00 +2.64917983894e+01  2.86969969847e+01  0.00000000000e+00 0.0000e+00 1.0000e+00
        1  1    1    2  501    0 -5.06171668939e+01 -6.45161932261e+01 +3.59554737985e+02  3.68787264395e+02  0.00000000000e+00 0.0000e+00 -1.0000e+00
        1  1    1    2  502    0 +3.66696684788e+01 +3.25447086717e+02 +3.52391814966e+02  4.81082593838e+02  0.00000000000e+00 0.0000e+00 -1.0000e+00
#  0.1300000e+05  0.1300000e+05  0.1300000e+05  0.1300000e+05
<mgrwt>
<rscale>  2 0.40382680e+03</rscale>
<asrwt>0</asrwt>
<pdfrwt beam="1">  1        2 0.15415736e+00 0.16681139e+03</pdfrwt>
<pdfrwt beam="2">  1        2 0.41155950e-01 0.54223175e+03</pdfrwt>
<totfact> 0.50070344e+00</totfact>
</mgrwt>
<clustering>
<clus scale="   82.041">  3  5 -1 -1</clus>
<clus scale="  166.811">  1  4  2 -1</clus>
<clus scale="  252.669">  1  6  2 -1</clus>
<clus scale="  542.232">  1  3  2 -1</clus>
</clustering>
<rwgt>
  <wgt id="1">4.40406e-06</wgt>
  <wgt id="2">3.01398e-06</wgt>
  <wgt id="3">2.19577e-06</wgt>
  <wgt id="4">4.12807e-06</wgt>
  <wgt id="5">2.8251e-06</wgt>
  <wgt id="6">2.05817e-06</wgt>
  <wgt id="7">3.87329e-06</wgt>
  <wgt id="8">2.65074e-06</wgt>
  <wgt id="9">1.93114e-06</wgt>
  <wgt id="10">2.8251e-06</wgt>
  <wgt id="11">2.8251e-06</wgt>
  <wgt id="12">2.8251e-06</wgt>
  <wgt id="13">2.8251e-06</wgt>
  <wgt id="14">2.82835e-06</wgt>
  <wgt id="15">2.82242e-06</wgt>
  <wgt id="16">2.82307e-06</wgt>
  <wgt id="17">2.82726e-06</wgt>
  <wgt id="18">2.8133e-06</wgt>
  <wgt id="19">2.84256e-06</wgt>
  <wgt id="20">2.81442e-06</wgt>
  <wgt id="21">2.83231e-06</wgt>
  <wgt id="22">2.83115e-06</wgt>
  <wgt id="23">2.81654e-06</wgt>
  <wgt id="24">2.85913e-06</wgt>
  <wgt id="25">2.80409e-06</wgt>
  <wgt id="26">2.82405e-06</wgt>
  <wgt id="27">2.82659e-06</wgt>
  <wgt id="28">2.86342e-06</wgt>
  <wgt id="29">2.81115e-06</wgt>
  <wgt id="30">2.83067e-06</wgt>
  <wgt id="31">2.81788e-06</wgt>
  <wgt id="32">2.8299e-06</wgt>
  <wgt id="33">2.8205e-06</wgt>
  <wgt id="34">2.79338e-06</wgt>
  <wgt id="35">2.88328e-06</wgt>
  <wgt id="36">2.8379e-06</wgt>
  <wgt id="37">2.8185e-06</wgt>
  <wgt id="38">2.81573e-06</wgt>
  <wgt id="39">2.82968e-06</wgt>
  <wgt id="40">2.82561e-06</wgt>
  <wgt id="41">2.82503e-06</wgt>
  <wgt id="42">2.84532e-06</wgt>
  <wgt id="43">2.78804e-06</wgt>
  <wgt id="44">2.83436e-06</wgt>
  <wgt id="45">2.82151e-06</wgt>
  <wgt id="46">2.82426e-06</wgt>
  <wgt id="47">2.82607e-06</wgt>
  <wgt id="48">2.80048e-06</wgt>
  <wgt id="49">2.83819e-06</wgt>
  <wgt id="50">2.815e-06</wgt>
  <wgt id="51">2.83627e-06</wgt>
  <wgt id="52">2.82925e-06</wgt>
  <wgt id="53">2.82387e-06</wgt>
</rwgt>
</event>
<event>
 10      0 +2.8251000e-06 6.62762100e+02 7.54677100e-03 9.51929100e-02
        2 -1    0    0  501    0 +0.00000000000e+00 +0.00000000000e+00 +1.72083497000e+03  1.72083497000e+03  0.00000000000e+00 0.0000e+00 -1.0000e+00
        2 -1    0    0  502    0 +0.00000000000e+00 +0.00000000000e+00 -1.03711695420e+03  1.03711695420e+03  0.00000000000e+00 0.0000e+00 -1.0000e+00
       24  2    1    2    0    0 -1.19076208965e+02 -7.07984407373e+01 -3.59137403858e+01  1.63336193742e+02  7.87232664813e+01 0.0000e+00 0.0000e+00
       12  1    3    3    0    0 -1.02750193773e+01 -3.45886620935e+01 -3.25869046883e+01  4.86195220645e+01  0.00000000000e+00 0.0000e+00 -1.0000e+00
      -11  1    3    3    0    0 -1.08801189587e+02 -3.62097786439e+01 -3.32683569751e+00  1.14716671678e+02  0.00000000000e+00 0.0000e+00 1.0000e+00
       24  2    1    2    0    0 +4.02680791540e+02 +2.62690068818e+02 +2.06505791959e+02  5.29538082214e+02  8.12898903407e+01 0.0000e+00 0.0000e+00
       14  1    6    6    0    0 +2.24990997270e+02 +1.90361991083e+02 +1.08027967438e+02  3.13892781457e+02  0.00000000000e+00 0.0000e+00 -1.0000e+00
      -13  1    6    6    0    0 +1.77689794270e+02 +7.23280777353e+01 +9.84778245217e+01  2.15645300758e+02  0.00000000000e+00 0.0000e+00 1.0000e+00
        1  1    1    2  501    0 -9.58101415375e+02 +2.79083351574e+02 -1.49098726749e+02  1.00899765589e+03  0.00000000000e+00 0.0000e+00 -1.0000e+00
        1  1    1    2  502    0 +6.74496832799e+02 -4.70974979655e+02 +6.62224690976e+02  1.05607999236e+03  0.00000000000e+00 0.0000e+00 -1.0000e+00
#  0.1300000e+05  0.1300000e+05  0.1300000e+05  0.1300000e+05
<mgrwt>
<rscale>  2 0.50743710e+03</rscale>
<asrwt>0</asrwt>
<pdfrwt beam="1">  1        2 0.26474384e+00 0.46392262e+03</pdfrwt>
<pdfrwt beam="2">  1        2 0.15955645e+00 0.15942032e+03</pdfrwt>
<totfact> 0.37509735e-01</totfact>
</mgrwt>
<clustering>
<clus scale="  159.420">  2  3  1 -1</clus>
<clus scale="  463.923">  1  4  2 -1</clus>
<clus scale="  946.825">  1  6  2 -1</clus>
<clus scale="  946.825">  1  3  2 -1</clus>
</clustering>
<rwgt>
  <wgt id="1">4.95073e-06</wgt>
  <wgt id="2">3.42883e-06</wgt>
  <wgt id="3">2.51891e-06</wgt>
  <wgt id="4">4.07903e-06</wgt>
  <wgt id="5">2.8251e-06</wgt>
  <wgt id="6">2.0754e-06</wgt>
  <wgt id="7">3.44273e-06</wgt>
  <wgt id="8">2.3844e-06</wgt>
  <wgt id="9">1.75165e-06</wgt>
  <wgt id="10">2.8251e-06</wgt>
  <wgt id="11">2.8251e-06</wgt>
  <wgt id="12">2.8251e-06</wgt>
  <wgt id="13">2.8251e-06</wgt>
  <wgt id="14">2.82808e-06</wgt>
  <wgt id="15">2.82263e-06</wgt>
  <wgt id="16">2.80689e-06</wgt>
  <wgt id="17">2.84544e-06</wgt>
  <wgt id="18">2.81056e-06</wgt>
  <wgt id="19">2.84661e-06</wgt>
  <wgt id="20">2.81736e-06</wgt>
  <wgt id="21">2.83029e-06</wgt>
  <wgt id="22">2.83382e-06</wgt>
  <wgt id="23">2.81273e-06</wgt>
  <wgt id="24">2.87249e-06</wgt>
  <wgt id="25">2.796e-06</wgt>
  <wgt id="26">2.82568e-06</wgt>
  <wgt id="27">2.82434e-06</wgt>
  <wgt id="28">2.87672e-06</wgt>
  <wgt id="29">2.80641e-06</wgt>
  <wgt id="30">2.83117e-06</wgt>
  <wgt id="31">2.81754e-06</wgt>
  <wgt id="32">2.8256e-06</wgt>
  <wgt id="33">2.8246e-06</wgt>
  <wgt id="34">2.78189e-06</wgt>
  <wgt id="35">2.90522e-06</wgt>
  <wgt id="36">2.84699e-06</wgt>
  <wgt id="37">2.81305e-06</wgt>
  <wgt id="38">2.81394e-06</wgt>
  <wgt id="39">2.83112e-06</wgt>
  <wgt id="40">2.83007e-06</wgt>
  <wgt id="41">2.82031e-06</wgt>
  <wgt id="42">2.85001e-06</wgt>
  <wgt id="43">2.7857e-06</wgt>
  <wgt id="44">2.83134e-06</wgt>
  <wgt id="45">2.82292e-06</wgt>
  <wgt id="46">2.82306e-06</wgt>
  <wgt id="47">2.82637e-06</wgt>
  <wgt id="48">2.82766e-06</wgt>
  <wgt id="49">2.82917e-06</wgt>
  <wgt id="50">2.81742e-06</wgt>
  <wgt id="51">2.83727e-06</wgt>
  <wgt id="52">2.8426e-06</wgt>
  <wgt id="53">2.82075e-06</wgt>
</rwgt>
</event>
<event>
 12      0 +2.8251000e-06 2.93163400e+02 7.54677100e-03 1.02974600e-01
        2 -1    0    0  504    0 +0.00000000000e+00 +0.00000000000e+00 +2.49760282010e+03  2.49760282010e+03  0.00000000000e+00 0.0000e+00 -1.0000e+00
        2 -1    0    0  502    0 +0.00000000000e+00 +0.00000000000e+00 -6.59152214790e+02  6.59152214790e+02  0.00000000000e+00 0.0000e+00 -1.0000e+00
       24  2    1    2    0    0 -2.17701913272e+02 -6.41348265558e+00 +1.77104992526e+03  1.78616151224e+03  7.94975110426e+01 0.0000e+00 0.0000e+00
       12  1    3    3    0    0 -7.61310036004e+01 +2.71857424912e+01 +4.58573038600e+02  4.65643883279e+02  0.00000000000e+00 0.0000e+00 -1.0000e+00
      -11  1    3    3    0    0 -1.41570909671e+02 -3.35992251468e+01 +1.31247688666e+03  1.32051762896e+03  0.00000000000e+00 0.0000e+00 1.0000e+00
       24  2    1    2    0    0 -4.12835945572e+01 +1.71086148006e+02 -3.01075487151e+02  3.57526672192e+02  7.87659009116e+01 0.0000e+00 0.0000e+00
       14  1    6    6    0    0 -5.42731308864e+01 +7.23454572692e+01 -1.73743961071e+02  1.95873433452e+02  0.00000000000e+00 0.0000e+00 -1.0000e+00
      -13  1    6    6    0    0 +1.29895363292e+01 +9.87406907371e+01 -1.27331526080e+02  1.61653238740e+02  0.00000000000e+00 0.0000e+00 1.0000e+00
       21  1    1    2  503  501 +4.18442714554e+01 +7.78484591622e+01 -3.65993757478e+01  9.56600227509e+01  0.00000000000e+00 0.0000e+00 -1.0000e+00
       21  1    1    2  504  503 -4.38436000988e+01 -1.05025920015e-01 +3.18563270970e+01  5.41949986270e+01  0.00000000000e+00 0.0000e+00 1.0000e+00
        1  1    1    2  501    0 +1.14527465733e+02 +1.03272629446e+02 -1.52709317491e+02  2.17029749224e+02  0.00000000000e+00 0.0000e+00 -1.0000e+00
        1  1    1    2  502    0 +1.46457370739e+02 -3.45688728039e+02 +5.25928533345e+02  6.46182079853e+02  0.00000000000e+00 0.0000e+00 -1.0000e+00
#  0.1300000e+05  0.1300000e+05  0.5181597e+02  0.4384373e+02  0.1300000e+05  0.1300000e+05
<mgrwt>
<rscale>  2 0.27140541e+03</rscale>
<asrwt>  2 0.43843726e+02 0.51815973e+02</asrwt>
<pdfrwt beam="1">  2        2        2 0.38424659e+00 0.37111620e+00 0.43843726e+02 0.29316336e+03</pdfrwt>
<pdfrwt beam="2">  1        2 0.10140803e+00 0.19406739e+03</pdfrwt>
<totfact> 0.67104912e-03</totfact>
</mgrwt>
<clustering>
<clus scale="   43.844">  1  6  2 -1</clus>
<clus scale="   51.816">  5  7 -1 -1</clus>
<clus scale="  194.067">  2  4  1 -1</clus>
<clus scale="  264.191">  1  3  2 -1</clus>
<clus scale="  318.039">  1  8  2 -1</clus>
<clus scale="  325.313">  1  3  2 -1</clus>
</clustering>
<rwgt>
  <wgt id="1">5.20899e-06</wgt>
  <wgt id="2">3.48405e-06</wgt>
  <wgt id="3">2.49878e-06</wgt>
  <wgt id="4">4.22379e-06</wgt>
  <wgt id="5">2.8251e-06</wgt>
  <wgt id="6">2.02618e-06</wgt>
  <wgt id="7">3.51847e-06</wgt>
  <wgt id="8">2.35334e-06</wgt>
  <wgt id="9">1.68783e-06</wgt>
  <wgt id="10">4.88806e-06</wgt>
  <wgt id="11">2.8251e-06</wgt>
  <wgt id="12">1.84693e-06</wgt>
  <wgt id="13">2.8251e-06</wgt>
  <wgt id="14">2.8283e-06</wgt>
  <wgt id="15">2.82253e-06</wgt>
  <wgt id="16">2.80822e-06</wgt>
  <wgt id="17">2.84406e-06</wgt>
  <wgt id="18">2.80999e-06</wgt>
  <wgt id="19">2.84751e-06</wgt>
  <wgt id="20">2.81565e-06</wgt>
  <wgt id="21">2.83155e-06</wgt>
  <wgt id="22">2.83397e-06</wgt>
  <wgt id="23">2.81267e-06</wgt>
  <wgt id="24">2.87327e-06</wgt>
  <wgt id="25">2.79561e-06</wgt>
  <wgt id="26">2.82497e-06</wgt>
  <wgt id="27">2.82556e-06</wgt>
  <wgt id="28">2.86223e-06</wgt>
  <wgt id="29">2.81148e-06</wgt>
  <wgt id="30">2.82902e-06</wgt>
  <wgt id="31">2.82018e-06</wgt>
  <wgt id="32">2.82212e-06</wgt>
  <wgt id="33">2.82809e-06</wgt>
  <wgt id="34">2.78379e-06</wgt>
  <wgt id="35">2.90184e-06</wgt>
  <wgt id="36">2.84531e-06</wgt>
  <wgt id="37">2.81554e-06</wgt>
  <wgt id="38">2.81524e-06</wgt>
  <wgt id="39">2.83067e-06</wgt>
  <wgt id="40">2.83588e-06</wgt>
  <wgt id="41">2.81455e-06</wgt>
  <wgt id="42">2.84795e-06</wgt>
  <wgt id="43">2.78802e-06</wgt>
  <wgt id="44">2.83533e-06</wgt>
  <wgt id="45">2.82127e-06</wgt>
  <wgt id="46">2.82477e-06</wgt>
  <wgt id="47">2.82552e-06</wgt>
  <wgt id="48">2.82368e-06</wgt>
  <wgt id="49">2.83108e-06</wgt>
  <wgt id="50">2.81649e-06</wgt>
  <wgt id="51">2.83873e-06</wgt>
  <wgt id="52">2.8383e-06</wgt>
  <wgt id="53">2.82199e-06</wgt>
</rwgt>
</event>
<event>
 10      0 +2.8251000e-06 2.25707200e+02 7.54677100e-03 1.07504800e-01
       -3 -1    0    0    0  501 +0.00000000000e+00 +0.00000000000e+00 +2.39710308110e+02  2.39710308110e+02  0.00000000000e+00 0.0000e+00 1.0000e+00
        4 -1    0    0  501    0 +0.00000000000e+00 +0.00000000000e+00 -9.33337781920e+02  9.33337781920e+02  0.00000000000e+00 0.0000e+00 -1.0000e+00
       24  2    1    2    0    0 +3.22543873288e+01 +4.87851020832e+01 -2.35688310039e+02  2.56560188968e+02  8.27877973316e+01 0.0000e+00 0.0000e+00
       16  1    3    3    0    0 +4.86231760529e+01 +1.96060392839e+01 -2.03458495383e+02  2.10104662893e+02  0.00000000000e+00 0.0000e+00 -1.0000e+00
      -15  1    3    3    0    0 -1.63687887241e+01 +2.91790627993e+01 -3.22298146560e+01  4.64555260749e+01  1.77700000000e+00 0.0000e+00 1.0000e+00
       24  2    1    2    0    0 -1.61393342107e+02 +1.08026128119e+01 -4.22339818367e+01  1.80859940635e+02  6.90079820359e+01 0.0000e+00 0.0000e+00
       12  1    6    6    0    0 -2.27962162755e+00 +1.44778806779e+01 +3.85597180433e+00  1.51550065076e+01  0.00000000000e+00 0.0000e+00 -1.0000e+00
      -11  1    6    6    0    0 -1.59113720480e+02 -3.67526786599e+00 -4.60899536410e+01  1.65704934128e+02  0.00000000000e+00 0.0000e+00 1.0000e+00
        3  1    1    2  502    0 +2.25802181334e+02 +2.08068121432e+02 -2.97323480444e+02  4.27411067094e+02  0.00000000000e+00 0.0000e+00 -1.0000e+00
       -4  1    1    2    0  502 -9.66632265555e+01 -2.67655836327e+02 -1.18381701491e+02  3.08216893333e+02  0.00000000000e+00 0.0000e+00 1.0000e+00
#  0.1300000e+05  0.1300000e+05  0.1300000e+05  0.1300000e+05
<mgrwt>
<rscale>  2 0.19671152e+03</rscale>
<asrwt>0</asrwt>
<pdfrwt beam="1">  1        4 0.14359043e+00 0.99597312e+02</pdfrwt>
<pdfrwt beam="2">  1       -3 0.36878509e-01 0.17262745e+03</pdfrwt>
<totfact> 0.71979352e-02</totfact>
</mgrwt>
<clustering>
<clus scale="   99.597">  2  3  1 -1</clus>
<clus scale="  172.627">  1  4  2 -1</clus>
<clus scale="  295.108">  1  6  2 -1</clus>
<clus scale="  295.108">  2  3  1 -1</clus>
</clustering>
<rwgt>
  <wgt id="1">3.99064e-06</wgt>
  <wgt id="2">2.61464e-06</wgt>
  <wgt id="3">1.84939e-06</wgt>
  <wgt id="4">4.31186e-06</wgt>
  <wgt id="5">2.8251e-06</wgt>
  <wgt id="6">1.99826e-06</wgt>
  <wgt id="7">4.3362e-06</wgt>
  <wgt id="8">2.84104e-06</wgt>
  <wgt id="9">2.00953e-06</wgt>
  <wgt id="10">2.8251e-06</wgt>
  <wgt id="11">2.8251e-06</wgt>
  <wgt id="12">2.8251e-06</wgt>
  <wgt id="13">2.8251e-06</wgt>
  <wgt id="14">2.83995e-06</wgt>
  <wgt id="15">2.81279e-06</wgt>
  <wgt id="16">2.80339e-06</wgt>
  <wgt id="17">2.84934e-06</wgt>
  <wgt id="18">2.85389e-06</wgt>
  <wgt id="19">2.78248e-06</wgt>
  <wgt id="20">2.80796e-06</wgt>
  <wgt id="21">2.83656e-06</wgt>
  <wgt id="22">2.84175e-06</wgt>
  <wgt id="23">2.80098e-06</wgt>
  <wgt id="24">2.78463e-06</wgt>
  <wgt id="25">2.85032e-06</wgt>
  <wgt id="26">2.82997e-06</wgt>
  <wgt id="27">2.81829e-06</wgt>
  <wgt id="28">2.81598e-06</wgt>
  <wgt id="29">2.82836e-06</wgt>
  <wgt id="30">2.77619e-06</wgt>
  <wgt id="31">2.88542e-06</wgt>
  <wgt id="32">2.8258e-06</wgt>
  <wgt id="33">2.82448e-06</wgt>
  <wgt id="34">2.89725e-06</wgt>
  <wgt id="35">2.70342e-06</wgt>
  <wgt id="36">2.76809e-06</wgt>
  <wgt id="37">2.86156e-06</wgt>
  <wgt id="38">2.7775e-06</wgt>
  <wgt id="39">2.84794e-06</wgt>
  <wgt id="40">2.81443e-06</wgt>
  <wgt id="41">2.84139e-06</wgt>
  <wgt id="42">2.80074e-06</wgt>
  <wgt id="43">2.86598e-06</wgt>
  <wgt id="44">2.78875e-06</wgt>
  <wgt id="45">2.83931e-06</wgt>
  <wgt id="46">2.86385e-06</wgt>
  <wgt id="47">2.79715e-06</wgt>
  <wgt id="48">2.84261e-06</wgt>
  <wgt id="49">2.8152e-06</wgt>
  <wgt id="50">2.8242e-06</wgt>
  <wgt id="51">2.84964e-06</wgt>
  <wgt id="52">2.76949e-06</wgt>
  <wgt id="53">2.85915e-06</wgt>
</rwgt>
</event>
<event>
 11      0 +2.8251000e-06 1.69369000e+02 7.54677100e-03 1.12351500e-01
        2 -1    0    0  501    0 +0.00000000000e+00 +0.00000000000e+00 +1.14688242570e+03  1.14688242570e+03  0.00000000000e+00 0.0000e+00 -1.0000e+00
        2 -1    0    0  503    0 +0.00000000000e+00 +0.00000000000e+00 -1.92139262950e+03  1.92139262950e+03  0.00000000000e+00 0.0000e+00 -1.0000e+00
       24  2    1    2    0    0 +1.20562960514e+02 +4.36066951361e+01 -1.28590122859e+03  1.29481894791e+03  8.10997340218e+01 0.0000e+00 0.0000e+00
        4  1    3    3  504    0 +4.07987379689e+01 -2.21240150853e+01 -3.09145125106e+02  3.12609528710e+02  0.00000000000e+00 0.0000e+00 -1.0000e+00
       -3  1    3    3    0  504 +7.97642225456e+01 +6.57307102214e+01 -9.76756103483e+02  9.82209419195e+02  0.00000000000e+00 0.0000e+00 1.0000e+00
       24  2    1    2    0    0 -3.12157238442e+01 -1.40413581485e+01 +2.04393042806e+02  2.22266980972e+02  8.03399883556e+01 0.0000e+00 0.0000e+00
        2  1    6    6  505    0 +1.85097585406e+01 -1.07306918967e+01 +1.35835474649e+02  1.37510127202e+02  0.00000000000e+00 0.0000e+00 -1.0000e+00
       -1  1    6    6    0  505 -4.97254823847e+01 -3.31066625177e+00 +6.85575681568e+01  8.47568537701e+01  0.00000000000e+00 0.0000e+00 1.0000e+00
       21  1    1    2  503  502 -4.52055097659e+01 +4.04904336289e+01 -3.47685895495e+01  6.99418912235e+01  0.00000000000e+00 0.0000e+00 1.0000e+00
        1  1    1    2  501    0 -1.44248579752e+02 -1.13301496550e+02 -5.51575133701e+02  5.81274470451e+02  0.00000000000e+00 0.0000e+00 -1.0000e+00
        1  1    1    2  502    0 +1.00106852847e+02 +4.32457259335e+01 +8.93341705234e+02  8.99972764648e+02  0.00000000000e+00 0.0000e+00 -1.0000e+00
#  0.1300000e+05  0.1300000e+05  0.6091396e+02  0.1300000e+05  0.1300000e+05
<mgrwt>
<rscale>  2 0.14356431e+03</rscale>
<asrwt>  1 0.60913957e+02</asrwt>
<pdfrwt beam="1">  1        2 0.17644345e+00 0.87434701e+02</pdfrwt>
<pdfrwt beam="2">  2        2        2 0.29559887e+00 0.28295127e+00 0.60913957e+02 0.16936904e+03</pdfrwt>
<totfact> 0.51561413e-02</totfact>
</mgrwt>
<clustering>
<clus scale="   60.914">  2  5  1 -1</clus>
<clus scale="   87.435">  1  4  2 -1</clus>
<clus scale="   76.027">  1  7  2 -1</clus>
<clus scale="  149.059">  1  6  2 -1</clus>
<clus scale="  169.369">  1  3  2 -1</clus>
</clustering>
<rwgt>
  <wgt id="1">5.58058e-06</wgt>
  <wgt id="2">3.57465e-06</wgt>
  <wgt id="3">2.49128e-06</wgt>
  <wgt id="4">4.41041e-06</wgt>
  <wgt id="5">2.8251e-06</wgt>
  <wgt id="6">1.9689e-06</wgt>
  <wgt id="7">3.61067e-06</wgt>
  <wgt id="8">2.31282e-06</wgt>
  <wgt id="9">1.61188e-06</wgt>
  <wgt id="10">3.66611e-06</wgt>
  <wgt id="11">2.8251e-06</wgt>
  <wgt id="12">2.30283e-06</wgt>
  <wgt id="13">2.8251e-06</wgt>
  <wgt id="14">2.82806e-06</wgt>
  <wgt id="15">2.82256e-06</wgt>
  <wgt id="16">2.80539e-06</wgt>
  <wgt id="17">2.8471e-06</wgt>
  <wgt id="18">2.81024e-06</wgt>
  <wgt id="19">2.8471e-06</wgt>
  <wgt id="20">2.81824e-06</wgt>
  <wgt id="21">2.82972e-06</wgt>
  <wgt id="22">2.83413e-06</wgt>
  <wgt id="23">2.8122e-06</wgt>
  <wgt id="24">2.87398e-06</wgt>
  <wgt id="25">2.79507e-06</wgt>
  <wgt id="26">2.82583e-06</wgt>
  <wgt id="27">2.82405e-06</wgt>
  <wgt id="28">2.87605e-06</wgt>
  <wgt id="29">2.80665e-06</wgt>
  <wgt id="30">2.83121e-06</wgt>
  <wgt id="31">2.81733e-06</wgt>
  <wgt id="32">2.82473e-06</wgt>
  <wgt id="33">2.82544e-06</wgt>
  <wgt id="34">2.78044e-06</wgt>
  <wgt id="35">2.90772e-06</wgt>
  <wgt id="36">2.84545e-06</wgt>
  <wgt id="37">2.81397e-06</wgt>
  <wgt id="38">2.81456e-06</wgt>
  <wgt id="39">2.83089e-06</wgt>
  <wgt id="40">2.83129e-06</wgt>
  <wgt id="41">2.81891e-06</wgt>
  <wgt id="42">2.85008e-06</wgt>
  <wgt id="43">2.78585e-06</wgt>
  <wgt id="44">2.8311e-06</wgt>
  <wgt id="45">2.82301e-06</wgt>
  <wgt id="46">2.82267e-06</wgt>
  <wgt id="47">2.82647e-06</wgt>
  <wgt id="48">2.83043e-06</wgt>
  <wgt id="49">2.82836e-06</wgt>
  <wgt id="50">2.81806e-06</wgt>
  <wgt id="51">2.83659e-06</wgt>
  <wgt id="52">2.84342e-06</wgt>
  <wgt id="53">2.82057e-06</wgt>
</rwgt>
</event>
<event>
 12      0 +2.8251000e-06 2.21312700e+02 7.54677100e-03 1.06004000e-01
        2 -1    0    0  501    0 +0.00000000000e+00 +0.00000000000e+00 +1.51016665240e+03  1.51016665240e+03  0.00000000000e+00 0.0000e+00 -1.0000e+00
        2 -1    0    0  503    0 +0.00000000000e+00 +0.00000000000e+00 -3.88568025400e+02  3.88568025400e+02  0.00000000000e+00 0.0000e+00 -1.0000e+00
       24  2    1    2    0    0 -1.25157862466e+02 -1.10894208798e+02 -3.86907045181e+01  1.89501780487e+02  8.03239572585e+01 0.0000e+00 0.0000e+00
        2  1    3    3  505    0 -6.59224268772e+01 -1.23352253775e+01 -3.20203938890e+01  7.43184349627e+01  0.00000000000e+00 0.0000e+00 -1.0000e+00
       -1  1    3    3    0  505 -5.92354355884e+01 -9.85589834207e+01 -6.67031062903e+00  1.15183345524e+02  0.00000000000e+00 0.0000e+00 1.0000e+00
       24  2    1    2    0    0 +1.06958877746e+01 +1.71485076862e+02 +8.02043761794e+02  8.24226095728e+02  8.09501540686e+01 0.0000e+00 0.0000e+00
       14  1    6    6    0    0 +2.95570471882e+01 +1.67793383484e+02 +7.04750694413e+02  7.25052949691e+02  0.00000000000e+00 0.0000e+00 -1.0000e+00
      -13  1    6    6    0    0 -1.88611594136e+01 +3.69169337794e+00 +9.72930673813e+01  9.91731460371e+01  0.00000000000e+00 0.0000e+00 1.0000e+00
       21  1    1    2  503  504 +4.08788495169e+01 +7.80801652042e+00 -3.51720114614e+01  5.44895939612e+01  0.00000000000e+00 0.0000e+00 -1.0000e+00
       21  1    1    2  504  502 -3.82920530149e+01 +3.46142033066e+01 -5.18799169203e+01  7.31843574427e+01  0.00000000000e+00 0.0000e+00 -1.0000e+00
        1  1    1    2  501    0 -1.79566897928e+02 -4.33405154923e+01 -3.91590922651e+01  1.88828243708e+02  0.00000000000e+00 0.0000e+00 -1.0000e+00
        1  1    1    2  502    0 +2.91442076117e+02 -5.96725723984e+01 +4.84456590371e+02  5.68504606474e+02  0.00000000000e+00 0.0000e+00 -1.0000e+00
#  0.1300000e+05  0.1300000e+05  0.4163392e+02  0.4740834e+02  0.1300000e+05  0.1300000e+05
<mgrwt>
<rscale>  2 0.21817819e+03</rscale>
<asrwt>  2 0.41633918e+02 0.47408337e+02</asrwt>
<pdfrwt beam="1">  1        2 0.23233333e+00 0.18535851e+03</pdfrwt>
<pdfrwt beam="2">  3        2        2        2 0.59779696e-01 0.52499452e-01 0.42637518e-01 0.41633918e+02 0.47408337e+02 0.22131267e+03</pdfrwt>
<totfact> 0.39459907e-02</totfact>
</mgrwt>
<clustering>
<clus scale="   41.634">  2  5  1 -1</clus>
<clus scale="   47.408">  2  6  1 -1</clus>
<clus scale="  175.078">  2  3  1 -1</clus>
<clus scale="  185.359">  1  4  2 -1</clus>
<clus scale="  264.241">  1  8  2 -1</clus>
<clus scale="  264.241">  1  3  2 -1</clus>
</clustering>
<rwgt>
  <wgt id="1">4.74226e-06</wgt>
  <wgt id="2">3.12856e-06</wgt>
  <wgt id="3">2.22308e-06</wgt>
  <wgt id="4">4.28227e-06</wgt>
  <wgt id="5">2.8251e-06</wgt>
  <wgt id="6">2.00744e-06</wgt>
  <wgt id="7">3.8919e-06</wgt>
  <wgt id="8">2.56756e-06</wgt>
  <wgt id="9">1.82445e-06</wgt>
  <wgt id="10">4.92846e-06</wgt>
  <wgt id="11">2.8251e-06</wgt>
  <wgt id="12">1.83801e-06</wgt>
  <wgt id="13">2.8251e-06</wgt>
  <wgt id="14">2.82823e-06</wgt>
  <wgt id="15">2.82258e-06</wgt>
  <wgt id="16">2.81698e-06</wgt>
  <wgt id="17">2.83408e-06</wgt>
  <wgt id="18">2.81215e-06</wgt>
  <wgt id="19">2.8443e-06</wgt>
  <wgt id="20">2.81553e-06</wgt>
  <wgt id="21">2.83159e-06</wgt>
  <wgt id="22">2.8323e-06</wgt>
  <wgt id="23">2.8149e-06</wgt>
  <wgt id="24">2.86485e-06</wgt>
  <wgt id="25">2.80062e-06</wgt>
  <wgt id="26">2.82454e-06</wgt>
  <wgt id="27">2.82592e-06</wgt>
  <wgt id="28">2.86825e-06</wgt>
  <wgt id="29">2.80947e-06</wgt>
  <wgt id="30">2.83012e-06</wgt>
  <wgt id="31">2.81865e-06</wgt>
  <wgt id="32">2.82824e-06</wgt>
  <wgt id="33">2.82213e-06</wgt>
  <wgt id="34">2.78848e-06</wgt>
  <wgt id="35">2.89264e-06</wgt>
  <wgt id="36">2.83695e-06</wgt>
  <wgt id="37">2.81968e-06</wgt>
  <wgt id="38">2.81657e-06</wgt>
  <wgt id="39">2.82959e-06</wgt>
  <wgt id="40">2.82796e-06</wgt>
  <wgt id="41">2.82255e-06</wgt>
  <wgt id="42">2.84681e-06</wgt>
  <wgt id="43">2.78747e-06</wgt>
  <wgt id="44">2.83383e-06</wgt>
  <wgt id="45">2.82185e-06</wgt>
  <wgt id="46">2.82422e-06</wgt>
  <wgt id="47">2.82589e-06</wgt>
  <wgt id="48">2.80874e-06</wgt>
  <wgt id="49">2.83582e-06</wgt>
  <wgt id="50">2.81623e-06</wgt>
  <wgt id="51">2.83733e-06</wgt>
  <wgt id="52">2.83286e-06</wgt>
  <wgt id="53">2.82312e-06</wgt>
</rwgt>
</event>
<event>
 10      0 +2.8251000e-06 2.78734800e+02 7.54677100e-03 1.03257800e-01
        4 -1    0    0  501    0 +0.00000000000e+00 +0.00000000000e+00 +3.06443146160e+01  3.06443146160e+01  0.00000000000e+00 0.0000e+00 -1.0000e+00
        2 -1    0    0  502    0 +0.00000000000e+00 +0.00000000000e+00 -3.20766186450e+03  3.20766186450e+03  0.00000000000e+00 0.0000e+00 -1.0000e+00
       24  2    1    2    0    0 +3.99833892285e+01 +1.35618054558e+01 -2.47652735739e+03  2.47823854825e+03  8.18288222733e+01 0.0000e+00 0.0000e+00
        4  1    3    3  503    0 +6.52527046877e+01 +6.61412414960e+00 -1.85425166438e+03  1.85541124739e+03  0.00000000000e+00 0.0000e+00 -1.0000e+00
       -3  1    3    3    0  503 -2.52693154593e+01 +6.94768130623e+00 -6.22275693009e+02  6.22827300854e+02  0.00000000000e+00 0.0000e+00 1.0000e+00
       24  2    1    2    0    0 -4.85815630405e+01 -8.19391581728e+01 -2.65606581162e+02  2.93018707964e+02  7.89867922546e+01 0.0000e+00 0.0000e+00
        2  1    6    6  504    0 +2.06462508610e+01 -7.22108690666e+00 -4.52674441624e+01  5.02747776894e+01  0.00000000000e+00 0.0000e+00 -1.0000e+00
       -1  1    6    6    0  504 -6.92278139015e+01 -7.47180712661e+01 -2.20339137000e+02  2.42743930274e+02  0.00000000000e+00 0.0000e+00 1.0000e+00
        1  1    1    2  501    0 -6.40752501828e+01 -8.12436352667e+00 -1.53734233216e+02  1.66750884349e+02  0.00000000000e+00 0.0000e+00 -1.0000e+00
        3  1    1    2  502    0 +7.26734239948e+01 +7.65017162436e+01 -2.81149378119e+02  3.00298038555e+02  0.00000000000e+00 0.0000e+00 -1.0000e+00
#  0.1300000e+05  0.1300000e+05  0.1300000e+05  0.1300000e+05
<mgrwt>
<rscale>  2 0.26577397e+03</rscale>
<asrwt>0</asrwt>
<pdfrwt beam="1">  1        2 0.49348644e+00 0.27873475e+03</pdfrwt>
<pdfrwt beam="2">  1        4 0.47145099e-02 0.23039679e+03</pdfrwt>
<totfact> 0.26765099e+00</totfact>
</mgrwt>
<clustering>
<clus scale="   64.798">  3  5 -1 -1</clus>
<clus scale="  104.996">  4  6 -1 -1</clus>
<clus scale="  230.397">  1  4  2 -1</clus>
<clus scale="  278.735">  2  3  1 -1</clus>
</clustering>
<rwgt>
  <wgt id="1">4.34541e-06</wgt>
  <wgt id="2">2.90274e-06</wgt>
  <wgt id="3">2.08005e-06</wgt>
  <wgt id="4">4.22918e-06</wgt>
  <wgt id="5">2.8251e-06</wgt>
  <wgt id="6">2.02442e-06</wgt>
  <wgt id="7">3.99278e-06</wgt>
  <wgt id="8">2.66718e-06</wgt>
  <wgt id="9">1.91126e-06</wgt>
  <wgt id="10">2.8251e-06</wgt>
  <wgt id="11">2.8251e-06</wgt>
  <wgt id="12">2.8251e-06</wgt>
  <wgt id="13">2.8251e-06</wgt>
  <wgt id="14">2.82801e-06</wgt>
  <wgt id="15">2.82275e-06</wgt>
  <wgt id="16">2.81114e-06</wgt>
  <wgt id="17">2.84076e-06</wgt>
  <wgt id="18">2.81803e-06</wgt>
  <wgt id="19">2.8356e-06</wgt>
  <wgt id="20">2.82363e-06</wgt>
  <wgt id="21">2.82607e-06</wgt>
  <wgt id="22">2.82727e-06</wgt>
  <wgt id="23">2.82202e-06</wgt>
  <wgt id="24">2.83466e-06</wgt>
  <wgt id="25">2.81907e-06</wgt>
  <wgt id="26">2.83174e-06</wgt>
  <wgt id="27">2.81608e-06</wgt>
  <wgt id="28">2.81414e-06</wgt>
  <wgt id="29">2.82881e-06</wgt>
  <wgt id="30">2.83141e-06</wgt>
  <wgt id="31">2.8092e-06</wgt>
  <wgt id="32">2.81104e-06</wgt>
  <wgt id="33">2.83854e-06</wgt>
  <wgt id="34">2.79008e-06</wgt>
  <wgt id="35">2.88636e-06</wgt>
  <wgt id="36">2.85185e-06</wgt>
  <wgt id="37">2.8092e-06</wgt>
  <wgt id="38">2.8278e-06</wgt>
  <wgt id="39">2.824e-06</wgt>
  <wgt id="40">2.84715e-06</wgt>
  <wgt id="41">2.80659e-06</wgt>
  <wgt id="42">2.83071e-06</wgt>
  <wgt id="43">2.8198e-06</wgt>
  <wgt id="44">2.83282e-06</wgt>
  <wgt id="45">2.82206e-06</wgt>
  <wgt id="46">2.82639e-06</wgt>
  <wgt id="47">2.82443e-06</wgt>
  <wgt id="48">2.82729e-06</wgt>
  <wgt id="49">2.83007e-06</wgt>
  <wgt id="50">2.81485e-06</wgt>
  <wgt id="51">2.82181e-06</wgt>
  <wgt id="52">2.8278e-06</wgt>
  <wgt id="53">2.82495e-06</wgt>
</rwgt>
</event>
<event>
 12      0 +2.8251000e-06 4.86352600e+02 7.54677100e-03 9.76362600e-02
        2 -1    0    0  503    0 +0.00000000000e+00 +0.00000000000e+00 +2.74857860540e+03  2.74857860540e+03  0.00000000000e+00 0.0000e+00 -1.0000e+00
        2 -1    0    0  501    0 +0.00000000000e+00 +0.00000000000e+00 -5.06422480780e+02  5.06422480780e+02  0.00000000000e+00 0.0000e+00 -1.0000e+00
       24  2    1    2    0    0 -2.39229414399e+01 +8.75784287733e+01 +1.47958938088e+03  1.48411922589e+03  7.19920294757e+01 0.0000e+00 0.0000e+00
        2  1    3    3  505    0 -1.55342841591e+01 +9.87623693627e+01 +1.36974338355e+03  1.37338714730e+03  0.00000000000e+00 0.0000e+00 -1.0000e+00
       -1  1    3    3    0  505 -8.38865728082e+00 -1.11839405894e+01 +1.09845997336e+02  1.10732078590e+02  0.00000000000e+00 0.0000e+00 1.0000e+00
       24  2    1    2    0    0 -6.17497677819e+01 -1.82281839585e+02 -3.92005643149e+02  4.43981278083e+02  8.00702701627e+01 0.0000e+00 0.0000e+00
        2  1    6    6  506    0 +1.15862557633e+01 -8.20150458900e+01 -1.32206897242e+02  1.56010809732e+02  0.00000000000e+00 0.0000e+00 -1.0000e+00
       -1  1    6    6    0  506 -7.33360235453e+01 -1.00266793695e+02 -2.59798745907e+02  2.87970468351e+02  0.00000000000e+00 0.0000e+00 1.0000e+00
       21  1    1    2  503  504 +1.16635082347e+02 +5.64463751220e+00 +2.43750255646e+02  2.70277249310e+02  0.00000000000e+00 0.0000e+00 -1.0000e+00
       21  1    1    2  504  502 -5.60370585449e+01 +7.78332322759e+01 +4.18324595471e+01  1.04633257852e+02  0.00000000000e+00 0.0000e+00 -1.0000e+00
        1  1    1    2  501    0 +7.72306739994e+01 -1.84874588031e+01 +8.86038386286e+02  8.89590009561e+02  0.00000000000e+00 0.0000e+00 -1.0000e+00
        1  1    1    2  502    0 -5.21559885797e+01 +2.97129998269e+01 -1.70487145946e+01  6.24000654869e+01  0.00000000000e+00 0.0000e+00 -1.0000e+00
#  0.1300000e+05  0.1300000e+05  0.1167716e+03  0.5006190e+02  0.1300000e+05  0.1300000e+05
<mgrwt>
<rscale>  2 0.41238795e+03</rscale>
<asrwt>  2 0.50061900e+02 0.11677159e+03</asrwt>
<pdfrwt beam="1">  2        2        2 0.42285825e+00 0.37224277e+00 0.11677159e+03 0.48635257e+03</pdfrwt>
<pdfrwt beam="2">  1        2 0.77911151e-01 0.48635257e+03</pdfrwt>
<totfact> 0.47351761e-03</totfact>
</mgrwt>
<clustering>
<clus scale="   50.062">  6  8 -1 -1</clus>
<clus scale="   75.413">  3  7 -1 -1</clus>
<clus scale="  116.772">  1  5  2 -1</clus>
<clus scale="  162.345">  4  6 -1 -1</clus>
<clus scale="  251.403">  1  3  2 -1</clus>
<clus scale="  486.353">  1  3  2 -1</clus>
</clustering>
<rwgt>
  <wgt id="1">4.95733e-06</wgt>
  <wgt id="2">3.39622e-06</wgt>
  <wgt id="3">2.4762e-06</wgt>
  <wgt id="4">4.12369e-06</wgt>
  <wgt id="5">2.8251e-06</wgt>
  <wgt id="6">2.05979e-06</wgt>
  <wgt id="7">3.50605e-06</wgt>
  <wgt id="8">2.40196e-06</wgt>
  <wgt id="9">1.75128e-06</wgt>
  <wgt id="10">4.66638e-06</wgt>
  <wgt id="11">2.8251e-06</wgt>
  <wgt id="12">1.90004e-06</wgt>
  <wgt id="13">2.8251e-06</wgt>
  <wgt id="14">2.82835e-06</wgt>
  <wgt id="15">2.82233e-06</wgt>
  <wgt id="16">2.80919e-06</wgt>
  <wgt id="17">2.84289e-06</wgt>
  <wgt id="18">2.80983e-06</wgt>
  <wgt id="19">2.84762e-06</wgt>
  <wgt id="20">2.81529e-06</wgt>
  <wgt id="21">2.83159e-06</wgt>
  <wgt id="22">2.83391e-06</wgt>
  <wgt id="23">2.81254e-06</wgt>
  <wgt id="24">2.87309e-06</wgt>
  <wgt id="25">2.79549e-06</wgt>
  <wgt id="26">2.82448e-06</wgt>
  <wgt id="27">2.82587e-06</wgt>
  <wgt id="28">2.8538e-06</wgt>
  <wgt id="29">2.81445e-06</wgt>
  <wgt id="30">2.82768e-06</wgt>
  <wgt id="31">2.82179e-06</wgt>
  <wgt id="32">2.82022e-06</wgt>
  <wgt id="33">2.8295e-06</wgt>
  <wgt id="34">2.78559e-06</wgt>
  <wgt id="35">2.89791e-06</wgt>
  <wgt id="36">2.84364e-06</wgt>
  <wgt id="37">2.81633e-06</wgt>
  <wgt id="38">2.81551e-06</wgt>
  <wgt id="39">2.83038e-06</wgt>
  <wgt id="40">2.83842e-06</wgt>
  <wgt id="41">2.81177e-06</wgt>
  <wgt id="42">2.84631e-06</wgt>
  <wgt id="43">2.78935e-06</wgt>
  <wgt id="44">2.83623e-06</wgt>
  <wgt id="45">2.82057e-06</wgt>
  <wgt id="46">2.82518e-06</wgt>
  <wgt id="47">2.82521e-06</wgt>
  <wgt id="48">2.82036e-06</wgt>
  <wgt id="49">2.83252e-06</wgt>
  <wgt id="50">2.81566e-06</wgt>
  <wgt id="51">2.83919e-06</wgt>
  <wgt id="52">2.83554e-06</wgt>
  <wgt id="53">2.82268e-06</wgt>
</rwgt>
</event>
<event>
 10      0 +2.8251000e-06 2.79045200e+02 7.54677100e-03 1.06513600e-01
       -1 -1    0    0    0  501 +0.00000000000e+00 +0.00000000000e+00 +1.43739877340e+03  1.43739877340e+03  0.00000000000e+00 0.0000e+00 1.0000e+00
       -3 -1    0    0    0  502 +0.00000000000e+00 +0.00000000000e+00 -1.19640914670e+02  1.19640914670e+02  0.00000000000e+00 0.0000e+00 1.0000e+00
       24  2    1    2    0    0 -8.57778627482e+01 +1.11706079584e+02 +2.10518291566e+02  2.66652938991e+02  8.33651536003e+01 0.0000e+00 0.0000e+00
        2  1    3    3  503    0 -9.51007100970e+01 +7.06541371706e+01 +1.30638519095e+02  1.76359220999e+02  0.00000000000e+00 0.0000e+00 -1.0000e+00
       -1  1    3    3    0  503 +9.32284734885e+00 +4.10519424134e+01 +7.98797724713e+01  9.02937179912e+01  0.00000000000e+00 0.0000e+00 1.0000e+00
       24  2    1    2    0    0 -4.01606858307e+01 +2.66327038147e+00 +7.37400587880e+02  7.43022742552e+02  8.18730434710e+01 0.0000e+00 0.0000e+00
       12  1    6    6    0    0 -2.06366123390e+00 +3.14865355090e+01 +1.31134387432e+02  1.34877307889e+02  0.00000000000e+00 0.0000e+00 -1.0000e+00
      -11  1    6    6    0    0 -3.80970245968e+01 -2.88232651276e+01 +6.06266200448e+02  6.08145434663e+02  0.00000000000e+00 0.0000e+00 1.0000e+00
       -2  1    1    2    0  502 +1.68854119842e+02 -1.68155119410e+02 +8.29307599998e+01  2.52319973298e+02  0.00000000000e+00 0.0000e+00 1.0000e+00
       -4  1    1    2    0  501 -4.29155712626e+01 +5.37857694444e+01 +2.86908219284e+02  2.95044033229e+02  0.00000000000e+00 0.0000e+00 1.0000e+00
#  0.1300000e+05  0.1300000e+05  0.1300000e+05  0.1300000e+05
<mgrwt>
<rscale>  2 0.21056745e+03</rscale>
<asrwt>0</asrwt>
<pdfrwt beam="1">  1       -1 0.22113827e+00 0.90477635e+02</pdfrwt>
<pdfrwt beam="2">  1       -3 0.18406295e-01 0.27904521e+03</pdfrwt>
<totfact> 0.24624485e-01</totfact>
</mgrwt>
<clustering>
<clus scale="   70.742">  3  6 -1 -1</clus>
<clus scale="   90.478">  1  4  2 -1</clus>
<clus scale="  231.831">  1  5  2 -1</clus>
<clus scale="  279.045">  1  3  2 -1</clus>
</clustering>
<rwgt>
  <wgt id="1">4.89405e-06</wgt>
  <wgt id="2">3.22113e-06</wgt>
  <wgt id="3">2.28529e-06</wgt>
  <wgt id="4">4.29233e-06</wgt>
  <wgt id="5">2.8251e-06</wgt>
  <wgt id="6">2.00432e-06</wgt>
  <wgt id="7">3.78623e-06</wgt>
  <wgt id="8">2.492e-06</wgt>
  <wgt id="9">1.768e-06</wgt>
  <wgt id="10">2.8251e-06</wgt>
  <wgt id="11">2.8251e-06</wgt>
  <wgt id="12">2.8251e-06</wgt>
  <wgt id="13">2.8251e-06</wgt>
  <wgt id="14">2.83407e-06</wgt>
  <wgt id="15">2.81782e-06</wgt>
  <wgt id="16">2.83478e-06</wgt>
  <wgt id="17">2.81433e-06</wgt>
  <wgt id="18">2.83302e-06</wgt>
  <wgt id="19">2.81389e-06</wgt>
  <wgt id="20">2.8243e-06</wgt>
  <wgt id="21">2.82578e-06</wgt>
  <wgt id="22">2.84267e-06</wgt>
  <wgt id="23">2.80014e-06</wgt>
  <wgt id="24">2.87264e-06</wgt>
  <wgt id="25">2.7964e-06</wgt>
  <wgt id="26">2.82407e-06</wgt>
  <wgt id="27">2.82565e-06</wgt>
  <wgt id="28">2.82338e-06</wgt>
  <wgt id="29">2.82606e-06</wgt>
  <wgt id="30">2.8145e-06</wgt>
  <wgt id="31">2.83659e-06</wgt>
  <wgt id="32">2.82587e-06</wgt>
  <wgt id="33">2.82484e-06</wgt>
  <wgt id="34">2.85259e-06</wgt>
  <wgt id="35">2.77991e-06</wgt>
  <wgt id="36">2.84169e-06</wgt>
  <wgt id="37">2.81014e-06</wgt>
  <wgt id="38">2.96942e-06</wgt>
  <wgt id="39">2.75919e-06</wgt>
  <wgt id="40">2.82493e-06</wgt>
  <wgt id="41">2.82946e-06</wgt>
  <wgt id="42">2.8107e-06</wgt>
  <wgt id="43">2.83329e-06</wgt>
  <wgt id="44">2.92428e-06</wgt>
  <wgt id="45">2.78129e-06</wgt>
  <wgt id="46">2.948e-06</wgt>
  <wgt id="47">2.7425e-06</wgt>
  <wgt id="48">2.87919e-06</wgt>
  <wgt id="49">2.78421e-06</wgt>
  <wgt id="50">2.81816e-06</wgt>
  <wgt id="51">2.82851e-06</wgt>
  <wgt id="52">2.72207e-06</wgt>
  <wgt id="53">2.85403e-06</wgt>
</rwgt>
</event>
<event>
 10      0 +2.8251000e-06 1.93175900e+02 7.54677100e-03 1.10703800e-01
        2 -1    0    0  502    0 +0.00000000000e+00 +0.00000000000e+00 +3.93408466820e+01  3.93408466820e+01  0.00000000000e+00 0.0000e+00 -1.0000e+00
        2 -1    0    0  501    0 +0.00000000000e+00 +0.00000000000e+00 -1.30082917620e+03  1.30082917620e+03  0.00000000000e+00 0.0000e+00 -1.0000e+00
       24  2    1    2    0    0 +7.76934140188e+00 +3.15105742824e+01 -6.97212855177e+02  7.01950517744e+02  7.46691702016e+01 0.0000e+00 0.0000e+00
        2  1    3    3  503    0 -2.38790950304e+01 +2.99727384404e+01 -1.94454620800e+02  1.98194792514e+02  0.00000000000e+00 0.0000e+00 -1.0000e+00
       -1  1    3    3    0  503 +3.16484364323e+01 +1.53783584195e+00 -5.02758234377e+02  5.03755725230e+02  0.00000000000e+00 0.0000e+00 1.0000e+00
       24  2    1    2    0    0 +3.48657880750e+01 +1.41992229581e+01 -1.90746661773e+02  2.11191984552e+02  8.24652911883e+01 0.0000e+00 0.0000e+00
        4  1    6    6  504    0 -2.51369087836e+01 +1.11885093609e+00 -3.02476217762e+01  3.93450712762e+01  0.00000000000e+00 0.0000e+00 -1.0000e+00
       -3  1    6    6    0  504 +6.00026968586e+01 +1.30803720220e+01 -1.60499039997e+02  1.71846913276e+02  0.00000000000e+00 0.0000e+00 1.0000e+00
        1  1    1    2  501    0 -1.07865665957e+02 -7.66920325078e+01 -2.09474958176e+02  2.47783025741e+02  0.00000000000e+00 0.0000e+00 -1.0000e+00
        1  1    1    2  502    0 +6.52305364799e+01 +3.09822352674e+01 -1.64053854392e+02  1.79244494846e+02  0.00000000000e+00 0.0000e+00 -1.0000e+00
#  0.1300000e+05  0.1300000e+05  0.1300000e+05  0.1300000e+05
<mgrwt>
<rscale>  2 0.15929961e+03</rscale>
<asrwt>0</asrwt>
<pdfrwt beam="1">  1        2 0.60524380e-02 0.89330587e+02</pdfrwt>
<pdfrwt beam="2">  1        2 0.20012757e+00 0.19317588e+03</pdfrwt>
<totfact> 0.39711493e+01</totfact>
</mgrwt>
<clustering>
<clus scale="   68.981">  3  6 -1 -1</clus>
<clus scale="   89.331">  1  4  2 -1</clus>
<clus scale="  108.752">  1  5  2 -1</clus>
<clus scale="  193.176">  1  3  2 -1</clus>
</clustering>
<rwgt>
  <wgt id="1">4.14432e-06</wgt>
  <wgt id="2">2.67533e-06</wgt>
  <wgt id="3">1.87385e-06</wgt>
  <wgt id="4">4.37633e-06</wgt>
  <wgt id="5">2.8251e-06</wgt>
  <wgt id="6">1.97876e-06</wgt>
  <wgt id="7">4.45024e-06</wgt>
  <wgt id="8">2.87281e-06</wgt>
  <wgt id="9">2.01218e-06</wgt>
  <wgt id="10">2.8251e-06</wgt>
  <wgt id="11">2.8251e-06</wgt>
  <wgt id="12">2.8251e-06</wgt>
  <wgt id="13">2.8251e-06</wgt>
  <wgt id="14">2.82714e-06</wgt>
  <wgt id="15">2.8234e-06</wgt>
  <wgt id="16">2.82612e-06</wgt>
  <wgt id="17">2.82383e-06</wgt>
  <wgt id="18">2.81638e-06</wgt>
  <wgt id="19">2.83801e-06</wgt>
  <wgt id="20">2.82313e-06</wgt>
  <wgt id="21">2.82641e-06</wgt>
  <wgt id="22">2.82896e-06</wgt>
  <wgt id="23">2.81963e-06</wgt>
  <wgt id="24">2.84537e-06</wgt>
  <wgt id="25">2.81254e-06</wgt>
  <wgt id="26">2.82812e-06</wgt>
  <wgt id="27">2.82095e-06</wgt>
  <wgt id="28">2.84431e-06</wgt>
  <wgt id="29">2.81807e-06</wgt>
  <wgt id="30">2.83515e-06</wgt>
  <wgt id="31">2.8074e-06</wgt>
  <wgt id="32">2.82778e-06</wgt>
  <wgt id="33">2.82253e-06</wgt>
  <wgt id="34">2.78828e-06</wgt>
  <wgt id="35">2.89072e-06</wgt>
  <wgt id="36">2.84132e-06</wgt>
  <wgt id="37">2.81473e-06</wgt>
  <wgt id="38">2.82097e-06</wgt>
  <wgt id="39">2.82713e-06</wgt>
  <wgt id="40">2.82938e-06</wgt>
  <wgt id="41">2.82344e-06</wgt>
  <wgt id="42">2.83595e-06</wgt>
  <wgt id="43">2.8041e-06</wgt>
  <wgt id="44">2.82944e-06</wgt>
  <wgt id="45">2.82352e-06</wgt>
  <wgt id="46">2.81885e-06</wgt>
  <wgt id="47">2.82921e-06</wgt>
  <wgt id="48">2.81946e-06</wgt>
  <wgt id="49">2.82953e-06</wgt>
  <wgt id="50">2.81019e-06</wgt>
  <wgt id="51">2.83007e-06</wgt>
  <wgt id="52">2.83306e-06</wgt>
  <wgt id="53">2.82307e-06</wgt>
</rwgt>
</event>
<event>
 11      0 +2.8251000e-06 3.08642600e+02 7.54677100e-03 1.03340200e-01
        2 -1    0    0  503    0 +0.00000000000e+00 +0.00000000000e+00 +4.12986045390e+02  4.12986045390e+02  0.00000000000e+00 0.0000e+00 -1.0000e+00
        2 -1    0    0  501    0 +0.00000000000e+00 +0.00000000000e+00 -1.87006199340e+03  1.87006199340e+03  0.00000000000e+00 0.0000e+00 -1.0000e+00
       24  2    1    2    0    0 -1.09764856262e+01 -3.91263837000e+01 -7.88173353075e+01  1.20202971751e+02  8.11493988565e+01 0.0000e+00 0.0000e+00
        2  1    3    3  504    0 -1.68491090851e+01 +2.04157095037e-01 +1.22494474005e+01  2.08322614878e+01  0.00000000000e+00 0.0000e+00 -1.0000e+00
       -1  1    3    3    0  504 +5.87262345884e+00 -3.93305407951e+01 -9.10667827079e+01  9.93707102636e+01  0.00000000000e+00 0.0000e+00 1.0000e+00
       24  2    1    2    0    0 +1.37605699418e+02 +6.48176961416e+01 -1.96138355795e+02  2.61053057507e+02  8.08812832149e+01 0.0000e+00 0.0000e+00
        4  1    6    6  505    0 +2.84726131215e+01 +4.93012221191e+01 -9.86393878257e+01  1.13890425546e+02  0.00000000000e+00 0.0000e+00 -1.0000e+00
       -3  1    6    6    0  505 +1.09133086297e+02 +1.55164740225e+01 -9.74989679691e+01  1.47162631961e+02  0.00000000000e+00 0.0000e+00 1.0000e+00
       21  1    1    2  503  502 +1.47798670185e+01 +3.85612614907e+02 -6.82456956998e+02  7.84004484298e+02  0.00000000000e+00 0.0000e+00 -1.0000e+00
        1  1    1    2  501    0 -1.36933429008e+01 -5.40443058025e+02 +4.61165064267e+01  5.42579891603e+02  0.00000000000e+00 0.0000e+00 -1.0000e+00
        1  1    1    2  502    0 -1.27715737910e+02 +1.29139130676e+02 -5.45779806336e+02  5.75207633630e+02  0.00000000000e+00 0.0000e+00 -1.0000e+00
#  0.1300000e+05  0.1300000e+05  0.1668794e+03  0.1300000e+05  0.1300000e+05
<mgrwt>
<rscale>  2 0.26416245e+03</rscale>
<asrwt>  1 0.16687937e+03</asrwt>
<pdfrwt beam="1">  1        2 0.63536315e-01 0.16906617e+03</pdfrwt>
<pdfrwt beam="2">  1        2 0.28770185e+00 0.90723036e+02</pdfrwt>
<totfact> 0.13897924e-01</totfact>
</mgrwt>
<clustering>
<clus scale="   90.723">  2  3  1 -1</clus>
<clus scale="  169.066">  1  4  2 -1</clus>
<clus scale="  166.879">  5  7 -1 -1</clus>
<clus scale="  506.223">  1  6  2 -1</clus>
<clus scale="  563.450">  1  3  2 -1</clus>
</clustering>
<rwgt>
  <wgt id="1">4.98975e-06</wgt>
  <wgt id="2">3.33193e-06</wgt>
  <wgt id="3">2.387e-06</wgt>
  <wgt id="4">4.23075e-06</wgt>
  <wgt id="5">2.8251e-06</wgt>
  <wgt id="6">2.02391e-06</wgt>
  <wgt id="7">3.6617e-06</wgt>
  <wgt id="8">2.44512e-06</wgt>
  <wgt id="9">1.75169e-06</wgt>
  <wgt id="10">3.51021e-06</wgt>
  <wgt id="11">2.8251e-06</wgt>
  <wgt id="12">2.36696e-06</wgt>
  <wgt id="13">2.8251e-06</wgt>
  <wgt id="14">2.82824e-06</wgt>
  <wgt id="15">2.82251e-06</wgt>
  <wgt id="16">2.815e-06</wgt>
  <wgt id="17">2.83632e-06</wgt>
  <wgt id="18">2.81163e-06</wgt>
  <wgt id="19">2.84514e-06</wgt>
  <wgt id="20">2.81654e-06</wgt>
  <wgt id="21">2.8309e-06</wgt>
  <wgt id="22">2.83277e-06</wgt>
  <wgt id="23">2.81423e-06</wgt>
  <wgt id="24">2.86726e-06</wgt>
  <wgt id="25">2.79913e-06</wgt>
  <wgt id="26">2.82479e-06</wgt>
  <wgt id="27">2.82562e-06</wgt>
  <wgt id="28">2.8665e-06</wgt>
  <wgt id="29">2.81012e-06</wgt>
  <wgt id="30">2.83017e-06</wgt>
  <wgt id="31">2.81859e-06</wgt>
  <wgt id="32">2.82678e-06</wgt>
  <wgt id="33">2.82349e-06</wgt>
  <wgt id="34">2.78639e-06</wgt>
  <wgt id="35">2.89642e-06</wgt>
  <wgt id="36">2.8349e-06</wgt>
  <wgt id="37">2.82138e-06</wgt>
  <wgt id="38">2.81772e-06</wgt>
  <wgt id="39">2.8292e-06</wgt>
  <wgt id="40">2.83019e-06</wgt>
  <wgt id="41">2.82029e-06</wgt>
  <wgt id="42">2.84697e-06</wgt>
  <wgt id="43">2.78754e-06</wgt>
  <wgt id="44">2.8339e-06</wgt>
  <wgt id="45">2.82175e-06</wgt>
  <wgt id="46">2.82389e-06</wgt>
  <wgt id="47">2.82609e-06</wgt>
  <wgt id="48">2.81247e-06</wgt>
  <wgt id="49">2.83474e-06</wgt>
  <wgt id="50">2.81631e-06</wgt>
  <wgt id="51">2.83731e-06</wgt>
  <wgt id="52">2.8339e-06</wgt>
  <wgt id="53">2.82297e-06</wgt>
</rwgt>
</event>
<event>
 11      0 +2.8251000e-06 8.84953400e+02 7.54677100e-03 9.01434900e-02
        2 -1    0    0  503    0 +0.00000000000e+00 +0.00000000000e+00 +4.44397608070e+02  4.44397608070e+02  0.00000000000e+00 0.0000e+00 -1.0000e+00
        2 -1    0    0  501    0 +0.00000000000e+00 +0.00000000000e+00 -1.68184601990e+03  1.68184601990e+03  0.00000000000e+00 0.0000e+00 -1.0000e+00
       24  2    1    2    0    0 +7.60305809347e-01 +4.08513047293e+01 +2.37996146625e+02  2.57749283165e+02  9.01283529235e+01 0.0000e+00 0.0000e+00
        2  1    3    3  504    0 +3.18742613520e+01 +2.74838748282e+01 +2.08914653510e+02  2.13111858805e+02  0.00000000000e+00 0.0000e+00 -1.0000e+00
       -1  1    3    3    0  504 -3.11139555426e+01 +1.33674299012e+01 +2.90814931155e+01  4.46374243600e+01  0.00000000000e+00 0.0000e+00 1.0000e+00
       24  2    1    2    0    0 -6.90782918009e+01 -2.00913722520e+02 -8.95331488285e+02  9.23711541265e+02  8.05382099132e+01 0.0000e+00 0.0000e+00
       12  1    6    6    0    0 -8.49543989368e+01 -1.89242912752e+02 -8.23849309522e+02  8.49563308250e+02  0.00000000000e+00 0.0000e+00 -1.0000e+00
      -11  1    6    6    0    0 +1.58761071359e+01 -1.16708097681e+01 -7.14821787635e+01  7.41482330148e+01  0.00000000000e+00 0.0000e+00 1.0000e+00
       21  1    1    2  503  502 +4.59803064689e+01 +1.12639196101e+02 +2.77223533918e+01  1.24781032047e+02  0.00000000000e+00 0.0000e+00 1.0000e+00
        1  1    1    2  501    0 +6.67626105445e+01 -3.54689629407e+01 -6.90598688612e+02  6.94724292228e+02  0.00000000000e+00 0.0000e+00 -1.0000e+00
        1  1    1    2  502    0 -4.44249310218e+01 +8.28921846307e+01 +8.27632650502e+01  1.25277479265e+02  0.00000000000e+00 0.0000e+00 -1.0000e+00
#  0.1300000e+05  0.1300000e+05  0.1158631e+03  0.1300000e+05  0.1300000e+05
<mgrwt>
<rscale>  2 0.80779724e+03</rscale>
<asrwt>  1 0.11586314e+03</asrwt>
<pdfrwt beam="1">  2        2        2 0.68368863e-01 0.56068065e-01 0.11586314e+03 0.88495339e+03</pdfrwt>
<pdfrwt beam="2">  1        2 0.25874554e+00 0.61439584e+03</pdfrwt>
<totfact> 0.10879505e-01</totfact>
</mgrwt>
<clustering>
<clus scale="   75.597">  3  6 -1 -1</clus>
<clus scale="   85.534">  4  7 -1 -1</clus>
<clus scale="  115.863">  1  5  2 -1</clus>
<clus scale="  614.396">  2  4  1 -1</clus>
<clus scale="  884.953">  1  3  2 -1</clus>
</clustering>
<rwgt>
  <wgt id="1">4.49811e-06</wgt>
  <wgt id="2">3.18537e-06</wgt>
  <wgt id="3">2.37706e-06</wgt>
  <wgt id="4">3.98938e-06</wgt>
  <wgt id="5">2.8251e-06</wgt>
  <wgt id="6">2.10821e-06</wgt>
  <wgt id="7">3.57765e-06</wgt>
  <wgt id="8">2.53353e-06</wgt>
  <wgt id="9">1.89063e-06</wgt>
  <wgt id="10">3.55888e-06</wgt>
  <wgt id="11">2.8251e-06</wgt>
  <wgt id="12">2.34547e-06</wgt>
  <wgt id="13">2.8251e-06</wgt>
  <wgt id="14">2.82825e-06</wgt>
  <wgt id="15">2.82253e-06</wgt>
  <wgt id="16">2.81403e-06</wgt>
  <wgt id="17">2.83741e-06</wgt>
  <wgt id="18">2.81157e-06</wgt>
  <wgt id="19">2.84512e-06</wgt>
  <wgt id="20">2.8159e-06</wgt>
  <wgt id="21">2.83129e-06</wgt>
  <wgt id="22">2.83271e-06</wgt>
  <wgt id="23">2.81419e-06</wgt>
  <wgt id="24">2.86713e-06</wgt>
  <wgt id="25">2.79916e-06</wgt>
  <wgt id="26">2.82474e-06</wgt>
  <wgt id="27">2.82559e-06</wgt>
  <wgt id="28">2.86862e-06</wgt>
  <wgt id="29">2.80929e-06</wgt>
  <wgt id="30">2.82963e-06</wgt>
  <wgt id="31">2.81935e-06</wgt>
  <wgt id="32">2.82689e-06</wgt>
  <wgt id="33">2.82336e-06</wgt>
  <wgt id="34">2.78707e-06</wgt>
  <wgt id="35">2.89532e-06</wgt>
  <wgt id="36">2.83826e-06</wgt>
  <wgt id="37">2.81923e-06</wgt>
  <wgt id="38">2.81631e-06</wgt>
  <wgt id="39">2.82982e-06</wgt>
  <wgt id="40">2.82947e-06</wgt>
  <wgt id="41">2.82096e-06</wgt>
  <wgt id="42">2.8471e-06</wgt>
  <wgt id="43">2.78777e-06</wgt>
  <wgt id="44">2.83364e-06</wgt>
  <wgt id="45">2.82186e-06</wgt>
  <wgt id="46">2.82428e-06</wgt>
  <wgt id="47">2.82582e-06</wgt>
  <wgt id="48">2.81431e-06</wgt>
  <wgt id="49">2.83388e-06</wgt>
  <wgt id="50">2.81632e-06</wgt>
  <wgt id="51">2.83804e-06</wgt>
  <wgt id="52">2.83505e-06</wgt>
  <wgt id="53">2.82257e-06</wgt>
</rwgt>
</event>
<event>
 11      0 +2.8251000e-06 1.33000400e+02 7.54677100e-03 1.13892300e-01
        2 -1    0    0  503    0 +0.00000000000e+00 +0.00000000000e+00 +1.63279395630e+03  1.63279395630e+03  0.00000000000e+00 0.0000e+00 -1.0000e+00
        2 -1    0    0  501    0 +0.00000000000e+00 +0.00000000000e+00 -1.93934808590e+02  1.93934808590e+02  0.00000000000e+00 0.0000e+00 -1.0000e+00
       24  2    1    2    0    0 -1.20207080804e+01 +5.57605755224e+00 +1.67841116481e+02  1.86330093596e+02  7.98290270346e+01 0.0000e+00 0.0000e+00
        4  1    3    3  504    0 -5.10422574299e-01 +3.17148269287e+01 +2.42520182312e+01  3.99280749174e+01  0.00000000000e+00 0.0000e+00 -1.0000e+00
       -3  1    3    3    0  504 -1.15102855061e+01 -2.61387693765e+01 +1.43589098250e+02  1.46402018679e+02  0.00000000000e+00 0.0000e+00 1.0000e+00
       24  2    1    2    0    0 -3.14676146389e+01 -2.13935097001e+00 +3.79403644522e+02  3.89157469592e+02  8.06326427019e+01 0.0000e+00 0.0000e+00
        2  1    6    6  505    0 -5.15596061267e+01 -1.44538166488e+01 +3.31212508456e+02  3.35513087013e+02  0.00000000000e+00 0.0000e+00 -1.0000e+00
       -1  1    6    6    0  505 +2.00919914878e+01 +1.23144656788e+01 +4.81911360661e+01  5.36443825786e+01  0.00000000000e+00 0.0000e+00 1.0000e+00
       21  1    1    2  503  502 +7.21571096851e+01 +1.08135132633e+02 -3.65233778011e+01  1.35032634995e+02  0.00000000000e+00 0.0000e+00 -1.0000e+00
        1  1    1    2  501    0 -5.72681901029e+01 -1.86222257304e+02 +9.93824676308e+02  1.01274175482e+03  0.00000000000e+00 0.0000e+00 -1.0000e+00
        1  1    1    2  502    0 +2.85994031370e+01 +7.46504180888e+01 -6.56869118003e+01  1.03466811889e+02  0.00000000000e+00 0.0000e+00 -1.0000e+00
#  0.1300000e+05  0.1300000e+05  0.4203907e+02  0.1300000e+05  0.1300000e+05
<mgrwt>
<rscale>  2 0.13065237e+03</rscale>
<asrwt>  1 0.42039074e+02</asrwt>
<pdfrwt beam="1">  1        2 0.25119907e+00 0.81501086e+02</pdfrwt>
<pdfrwt beam="2">  1        2 0.29836124e-01 0.87519680e+02</pdfrwt>
<totfact> 0.62123215e-01</totfact>
</mgrwt>
<clustering>
<clus scale="   42.039">  5  7 -1 -1</clus>
<clus scale="   81.501">  1  3  2 -1</clus>
<clus scale="   87.520">  2  4  1 -1</clus>
<clus scale="  194.880">  1  6  2 -1</clus>
<clus scale="  202.116">  1  3  2 -1</clus>
</clustering>
<rwgt>
  <wgt id="1">4.86747e-06</wgt>
  <wgt id="2">3.09577e-06</wgt>
  <wgt id="3">2.14739e-06</wgt>
  <wgt id="4">4.4419e-06</wgt>
  <wgt id="5">2.8251e-06</wgt>
  <wgt id="6">1.95964e-06</wgt>
  <wgt id="7">4.05566e-06</wgt>
  <wgt id="8">2.57945e-06</wgt>
  <wgt id="9">1.78924e-06</wgt>
  <wgt id="10">3.74355e-06</wgt>
  <wgt id="11">2.8251e-06</wgt>
  <wgt id="12">2.27434e-06</wgt>
  <wgt id="13">2.8251e-06</wgt>
  <wgt id="14">2.82863e-06</wgt>
  <wgt id="15">2.82223e-06</wgt>
  <wgt id="16">2.82138e-06</wgt>
  <wgt id="17">2.82914e-06</wgt>
  <wgt id="18">2.81322e-06</wgt>
  <wgt id="19">2.84275e-06</wgt>
  <wgt id="20">2.81964e-06</wgt>
  <wgt id="21">2.82879e-06</wgt>
  <wgt id="22">2.83169e-06</wgt>
  <wgt id="23">2.81582e-06</wgt>
  <wgt id="24">2.86098e-06</wgt>
  <wgt id="25">2.80297e-06</wgt>
  <wgt id="26">2.82518e-06</wgt>
  <wgt id="27">2.82496e-06</wgt>
  <wgt id="28">2.8576e-06</wgt>
  <wgt id="29">2.81324e-06</wgt>
  <wgt id="30">2.83329e-06</wgt>
  <wgt id="31">2.81439e-06</wgt>
  <wgt id="32">2.82801e-06</wgt>
  <wgt id="33">2.82236e-06</wgt>
  <wgt id="34">2.79e-06</wgt>
  <wgt id="35">2.88909e-06</wgt>
  <wgt id="36">2.82893e-06</wgt>
  <wgt id="37">2.82338e-06</wgt>
  <wgt id="38">2.81926e-06</wgt>
  <wgt id="39">2.82824e-06</wgt>
  <wgt id="40">2.82873e-06</wgt>
  <wgt id="41">2.82185e-06</wgt>
  <wgt id="42">2.8443e-06</wgt>
  <wgt id="43">2.78953e-06</wgt>
  <wgt id="44">2.83208e-06</wgt>
  <wgt id="45">2.82247e-06</wgt>
  <wgt id="46">2.82121e-06</wgt>
  <wgt id="47">2.82782e-06</wgt>
  <wgt id="48">2.80722e-06</wgt>
  <wgt id="49">2.83622e-06</wgt>
  <wgt id="50">2.81532e-06</wgt>
  <wgt id="51">2.83286e-06</wgt>
  <wgt id="52">2.83094e-06</wgt>
  <wgt id="53">2.82362e-06</wgt>
</rwgt>
</event>
<event>
 10      0 +2.8251000e-06 4.36112400e+02 7.54677100e-03 1.01045800e-01
        2 -1    0    0  501    0 +0.00000000000e+00 +0.00000000000e+00 +4.97308193590e+02  4.97308193590e+02  0.00000000000e+00 0.0000e+00 -1.0000e+00
        2 -1    0    0  502    0 +0.00000000000e+00 +0.00000000000e+00 -1.13657750200e+03  1.13657750200e+03  0.00000000000e+00 0.0000e+00 -1.0000e+00
       24  2    1    2    0    0 -1.09172637062e+02 +2.46451235244e+02 +4.00060764064e+02  4.88011696225e+02  7.38236051201e+01 0.0000e+00 0.0000e+00
        4  1    3    3  503    0 -8.31078262411e+01 +2.17212801016e+02 +3.75781375692e+02  4.41927543863e+02  0.00000000000e+00 0.0000e+00 -1.0000e+00
       -3  1    3    3    0  503 -2.60648108210e+01 +2.92384342279e+01 +2.42793883716e+01  4.60841523621e+01  0.00000000000e+00 0.0000e+00 1.0000e+00
       24  2    1    2    0    0 -6.85404682384e+01 -5.13396918156e+01 -4.04087274510e+02  4.20906237046e+02  8.08824778408e+01 0.0000e+00 0.0000e+00
       14  1    6    6    0    0 -1.41165666644e+01 -5.73315438269e+01 -2.63480888834e+02  2.70015485024e+02  0.00000000000e+00 0.0000e+00 -1.0000e+00
      -13  1    6    6    0    0 -5.44239015740e+01 +5.99185201127e+00 -1.40606385676e+02  1.50890752022e+02  0.00000000000e+00 0.0000e+00 1.0000e+00
        1  1    1    2  501    0 +2.25345713876e+02 -1.92362760768e+02 -5.84573519402e+02  6.55370370156e+02  0.00000000000e+00 0.0000e+00 -1.0000e+00
        1  1    1    2  502    0 -4.76326085755e+01 -2.74878266080e+00 -5.06692785616e+01  6.95973921622e+01  0.00000000000e+00 0.0000e+00 -1.0000e+00
#  0.1300000e+05  0.1300000e+05  0.1300000e+05  0.1300000e+05
<mgrwt>
<rscale>  2 0.31405221e+03</rscale>
<asrwt>0</asrwt>
<pdfrwt beam="1">  1        2 0.76508953e-01 0.43611239e+03</pdfrwt>
<pdfrwt beam="2">  1        2 0.17485808e+00 0.11727681e+03</pdfrwt>
<totfact> 0.22943914e+00</totfact>
</mgrwt>
<clustering>
<clus scale="   48.041">  3  6 -1 -1</clus>
<clus scale="  117.277">  2  4  1 -1</clus>
<clus scale="  289.089">  2  5  1 -1</clus>
<clus scale="  436.112">  1  3  2 -1</clus>
</clustering>
<rwgt>
  <wgt id="1">4.6673e-06</wgt>
  <wgt id="2">3.1495e-06</wgt>
  <wgt id="3">2.27231e-06</wgt>
  <wgt id="4">4.18656e-06</wgt>
  <wgt id="5">2.8251e-06</wgt>
  <wgt id="6">2.03826e-06</wgt>
  <wgt id="7">3.79127e-06</wgt>
  <wgt id="8">2.55836e-06</wgt>
  <wgt id="9">1.84581e-06</wgt>
  <wgt id="10">2.8251e-06</wgt>
  <wgt id="11">2.8251e-06</wgt>
  <wgt id="12">2.8251e-06</wgt>
  <wgt id="13">2.8251e-06</wgt>
  <wgt id="14">2.82802e-06</wgt>
  <wgt id="15">2.82269e-06</wgt>
  <wgt id="16">2.81763e-06</wgt>
  <wgt id="17">2.83333e-06</wgt>
  <wgt id="18">2.8122e-06</wgt>
  <wgt id="19">2.8442e-06</wgt>
  <wgt id="20">2.81288e-06</wgt>
  <wgt id="21">2.8333e-06</wgt>
  <wgt id="22">2.832e-06</wgt>
  <wgt id="23">2.81528e-06</wgt>
  <wgt id="24">2.86377e-06</wgt>
  <wgt id="25">2.80123e-06</wgt>
  <wgt id="26">2.82414e-06</wgt>
  <wgt id="27">2.82642e-06</wgt>
  <wgt id="28">2.87237e-06</wgt>
  <wgt id="29">2.80803e-06</wgt>
  <wgt id="30">2.83024e-06</wgt>
  <wgt id="31">2.81856e-06</wgt>
  <wgt id="32">2.82931e-06</wgt>
  <wgt id="33">2.82107e-06</wgt>
  <wgt id="34">2.78933e-06</wgt>
  <wgt id="35">2.89103e-06</wgt>
  <wgt id="36">2.84637e-06</wgt>
  <wgt id="37">2.81382e-06</wgt>
  <wgt id="38">2.8137e-06</wgt>
  <wgt id="39">2.83071e-06</wgt>
  <wgt id="40">2.82582e-06</wgt>
  <wgt id="41">2.82478e-06</wgt>
  <wgt id="42">2.84797e-06</wgt>
  <wgt id="43">2.78589e-06</wgt>
  <wgt id="44">2.83445e-06</wgt>
  <wgt id="45">2.82152e-06</wgt>
  <wgt id="46">2.82517e-06</wgt>
  <wgt id="47">2.82536e-06</wgt>
  <wgt id="48">2.80771e-06</wgt>
  <wgt id="49">2.83567e-06</wgt>
  <wgt id="50">2.81478e-06</wgt>
  <wgt id="51">2.83913e-06</wgt>
  <wgt id="52">2.8337e-06</wgt>
  <wgt id="53">2.82277e-06</wgt>
</rwgt>
</event>
<event>
 12      0 +2.8251000e-06 3.53363500e+02 7.54677100e-03 1.00218000e-01
        2 -1    0    0  503    0 +0.00000000000e+00 +0.00000000000e+00 +3.23271566900e+03  3.23271566900e+03  0.00000000000e+00 0.0000e+00 -1.0000e+00
       -1 -1    0    0    0  501 +0.00000000000e+00 +0.00000000000e+00 -9.14543153890e+02  9.14543153890e+02  0.00000000000e+00 0.0000e+00 1.0000e+00
       24  2    1    2    0    0 -1.00946239302e+02 -1.04642726279e+02 -2.37027385231e+02  2.89746965863e+02  8.14314403975e+01 0.0000e+00 0.0000e+00
        2  1    3    3  505    0 -7.29748513685e+01 -9.28138122487e+01 -2.30061571927e+02  2.58588591306e+02  0.00000000000e+00 0.0000e+00 -1.0000e+00
       -1  1    3    3    0  505 -2.79713879333e+01 -1.18289140305e+01 -6.96581330464e+00  3.11583745573e+01  0.00000000000e+00 0.0000e+00 1.0000e+00
       24  2    1    2    0    0 -6.18705409612e+01 +1.80169885377e+02 +1.06609661488e+03  1.08609314832e+03  8.21412388769e+01 0.0000e+00 0.0000e+00
        4  1    6    6  506    0 -7.24097009121e+01 +1.18164912526e+02 +6.01500627296e+02  6.17259358759e+02  0.00000000000e+00 0.0000e+00 -1.0000e+00
       -3  1    6    6    0  506 +1.05391599509e+01 +6.20049728516e+01 +4.64595987586e+02  4.68833789559e+02  0.00000000000e+00 0.0000e+00 1.0000e+00
       21  1    1    2  503  504 +1.14878521987e+02 -9.63257944111e+01 +1.85727412112e+02  2.38684739966e+02  0.00000000000e+00 0.0000e+00 1.0000e+00
       21  1    1    2  504  501 +2.57594298182e+01 -5.96248013443e+01 +4.09645032434e+01  7.67903358886e+01  0.00000000000e+00 0.0000e+00 -1.0000e+00
        1  1    1    2  502    0 +1.26381287211e+02 +5.71328275539e+02 +1.69514495292e+03  1.79329435386e+03  0.00000000000e+00 0.0000e+00 -1.0000e+00
       -2  1    1    2    0  502 -1.04202458754e+02 -4.90904838882e+02 -4.32733582817e+02  6.62649278990e+02  0.00000000000e+00 0.0000e+00 1.0000e+00
#  0.1300000e+05  0.1300000e+05  0.1988419e+03  0.4181300e+02  0.1300000e+05  0.1300000e+05
<mgrwt>
<rscale>  3 0.33492727e+03</rscale>
<asrwt>  1 0.41812997e+02</asrwt>
<pdfrwt beam="1">  1        2 0.49734087e+00 0.20631037e+03</pdfrwt>
<pdfrwt beam="2">  1       -1 0.14069895e+00 0.16650841e+03</pdfrwt>
<totfact> 0.14193995e-04</totfact>
</mgrwt>
<clustering>
<clus scale="   41.813">  5  6 -1 -1</clus>
<clus scale="  166.508">  2  3  1 -1</clus>
<clus scale="  206.310">  1  4  2 -1</clus>
<clus scale="  198.842">  1  5  2 -1</clus>
<clus scale="  605.233">  2  8  1 -1</clus>
<clus scale="  605.233">  1  3  2 -1</clus>
</clustering>
<rwgt>
  <wgt id="1">7.28405e-06</wgt>
  <wgt id="2">4.05987e-06</wgt>
  <wgt id="3">2.49754e-06</wgt>
  <wgt id="4">5.06868e-06</wgt>
  <wgt id="5">2.8251e-06</wgt>
  <wgt id="6">1.73794e-06</wgt>
  <wgt id="7">3.72966e-06</wgt>
  <wgt id="8">2.07878e-06</wgt>
  <wgt id="9">1.27882e-06</wgt>
  <wgt id="10">3.74476e-06</wgt>
  <wgt id="11">2.8251e-06</wgt>
  <wgt id="12">2.27389e-06</wgt>
  <wgt id="13">2.8251e-06</wgt>
  <wgt id="14">2.82994e-06</wgt>
  <wgt id="15">2.82104e-06</wgt>
  <wgt id="16">2.82723e-06</wgt>
  <wgt id="17">2.82256e-06</wgt>
  <wgt id="18">2.80612e-06</wgt>
  <wgt id="19">2.8534e-06</wgt>
  <wgt id="20">2.85684e-06</wgt>
  <wgt id="21">2.80388e-06</wgt>
  <wgt id="22">2.84128e-06</wgt>
  <wgt id="23">2.80216e-06</wgt>
  <wgt id="24">2.91027e-06</wgt>
  <wgt id="25">2.77348e-06</wgt>
  <wgt id="26">2.82582e-06</wgt>
  <wgt id="27">2.82398e-06</wgt>
  <wgt id="28">2.83597e-06</wgt>
  <wgt id="29">2.82114e-06</wgt>
  <wgt id="30">2.80736e-06</wgt>
  <wgt id="31">2.84797e-06</wgt>
  <wgt id="32">2.82943e-06</wgt>
  <wgt id="33">2.82091e-06</wgt>
  <wgt id="34">2.81633e-06</wgt>
  <wgt id="35">2.84125e-06</wgt>
  <wgt id="36">2.79465e-06</wgt>
  <wgt id="37">2.84046e-06</wgt>
  <wgt id="38">2.92854e-06</wgt>
  <wgt id="39">2.77865e-06</wgt>
  <wgt id="40">2.83388e-06</wgt>
  <wgt id="41">2.81676e-06</wgt>
  <wgt id="42">2.82537e-06</wgt>
  <wgt id="43">2.81126e-06</wgt>
  <wgt id="44">2.87148e-06</wgt>
  <wgt id="45">2.806e-06</wgt>
  <wgt id="46">2.86095e-06</wgt>
  <wgt id="47">2.80257e-06</wgt>
  <wgt id="48">2.83381e-06</wgt>
  <wgt id="49">2.82589e-06</wgt>
  <wgt id="50">2.81455e-06</wgt>
  <wgt id="51">2.84931e-06</wgt>
  <wgt id="52">2.7931e-06</wgt>
  <wgt id="53">2.8348e-06</wgt>
</rwgt>
</event>
<event>
 10      0 +2.8251000e-06 4.94720900e+02 7.54677100e-03 1.00850800e-01
       -1 -1    0    0    0  501 +0.00000000000e+00 +0.00000000000e+00 +6.59024513080e+02  6.59024513080e+02  0.00000000000e+00 0.0000e+00 1.0000e+00
       -1 -1    0    0    0  502 +0.00000000000e+00 +0.00000000000e+00 -2.35247200420e+02  2.35247200420e+02  0.00000000000e+00 0.0000e+00 1.0000e+00
       24  2    1    2    0    0 +2.88339849794e+01 +1.45421419591e+02 -8.58182192771e+01  1.89778413989e+02  8.16840969262e+01 0.0000e+00 0.0000e+00
        4  1    3    3  503    0 -7.97932850123e+00 -8.09558005045e+00 -4.88089180615e+00  1.23705781800e+01  0.00000000000e+00 0.0000e+00 -1.0000e+00
       -3  1    3    3    0  503 +3.68133134806e+01 +1.53516999641e+02 -8.09373274709e+01  1.77407835809e+02  0.00000000000e+00 0.0000e+00 1.0000e+00
       24  2    1    2    0    0 -6.11142323506e+00 +2.50985662092e+01 +4.38711192467e+01  9.60342592273e+01  8.14285964613e+01 0.0000e+00 0.0000e+00
        4  1    6    6  504    0 -3.19601870329e+01 -1.01780738326e+01 +3.98935671461e+01  5.21204704676e+01  0.00000000000e+00 0.0000e+00 -1.0000e+00
       -3  1    6    6    0  504 +2.58487637978e+01 +3.52766400419e+01 +3.97755210062e+00  4.39137887597e+01  0.00000000000e+00 0.0000e+00 1.0000e+00
       -2  1    1    2    0  501 +3.43849848629e+01 -2.10691351848e+02 +9.93031111918e+01  2.35444857281e+02  0.00000000000e+00 0.0000e+00 1.0000e+00
       -2  1    1    2    0  502 -5.71075466073e+01 +4.01713660483e+01 +3.66421301499e+02  3.73014183003e+02  0.00000000000e+00 0.0000e+00 1.0000e+00
#  0.1300000e+05  0.1300000e+05  0.1300000e+05  0.1300000e+05
<mgrwt>
<rscale>  2 0.31881652e+03</rscale>
<asrwt>0</asrwt>
<pdfrwt beam="1">  1       -1 0.10138839e+00 0.49472093e+03</pdfrwt>
<pdfrwt beam="2">  1       -1 0.36191877e-01 0.85326196e+02</pdfrwt>
<totfact> 0.88103949e-01</totfact>
</mgrwt>
<clustering>
<clus scale="   68.561">  3  6 -1 -1</clus>
<clus scale="   85.326">  2  4  1 -1</clus>
<clus scale="  204.994">  2  5  1 -1</clus>
<clus scale="  494.721">  1  3  2 -1</clus>
</clustering>
<rwgt>
  <wgt id="1">4.38578e-06</wgt>
  <wgt id="2">2.96209e-06</wgt>
  <wgt id="3">2.13839e-06</wgt>
  <wgt id="4">4.18294e-06</wgt>
  <wgt id="5">2.8251e-06</wgt>
  <wgt id="6">2.03949e-06</wgt>
  <wgt id="7">3.92994e-06</wgt>
  <wgt id="8">2.65423e-06</wgt>
  <wgt id="9">1.91614e-06</wgt>
  <wgt id="10">2.8251e-06</wgt>
  <wgt id="11">2.8251e-06</wgt>
  <wgt id="12">2.8251e-06</wgt>
  <wgt id="13">2.8251e-06</wgt>
  <wgt id="14">2.83178e-06</wgt>
  <wgt id="15">2.81965e-06</wgt>
  <wgt id="16">2.85953e-06</wgt>
  <wgt id="17">2.78684e-06</wgt>
  <wgt id="18">2.80918e-06</wgt>
  <wgt id="19">2.84902e-06</wgt>
  <wgt id="20">2.87404e-06</wgt>
  <wgt id="21">2.79252e-06</wgt>
  <wgt id="22">2.83996e-06</wgt>
  <wgt id="23">2.80426e-06</wgt>
  <wgt id="24">2.90123e-06</wgt>
  <wgt id="25">2.77899e-06</wgt>
  <wgt id="26">2.82696e-06</wgt>
  <wgt id="27">2.82288e-06</wgt>
  <wgt id="28">2.83765e-06</wgt>
  <wgt id="29">2.82063e-06</wgt>
  <wgt id="30">2.81416e-06</wgt>
  <wgt id="31">2.838e-06</wgt>
  <wgt id="32">2.85242e-06</wgt>
  <wgt id="33">2.79906e-06</wgt>
  <wgt id="34">2.83158e-06</wgt>
  <wgt id="35">2.8129e-06</wgt>
  <wgt id="36">2.81313e-06</wgt>
  <wgt id="37">2.8262e-06</wgt>
  <wgt id="38">2.90808e-06</wgt>
  <wgt id="39">2.78716e-06</wgt>
  <wgt id="40">2.80843e-06</wgt>
  <wgt id="41">2.84299e-06</wgt>
  <wgt id="42">2.83242e-06</wgt>
  <wgt id="43">2.78788e-06</wgt>
  <wgt id="44">2.84849e-06</wgt>
  <wgt id="45">2.81612e-06</wgt>
  <wgt id="46">2.83358e-06</wgt>
  <wgt id="47">2.82158e-06</wgt>
  <wgt id="48">2.82568e-06</wgt>
  <wgt id="49">2.82489e-06</wgt>
  <wgt id="50">2.83374e-06</wgt>
  <wgt id="51">2.8191e-06</wgt>
  <wgt id="52">2.80622e-06</wgt>
  <wgt id="53">2.83037e-06</wgt>
</rwgt>
</event>
<event>
 12      0 +2.8251000e-06 1.63001200e+02 7.54677100e-03 1.10766300e-01
        2 -1    0    0  504    0 +0.00000000000e+00 +0.00000000000e+00 +2.15414083730e+03  2.15414083730e+03  0.00000000000e+00 0.0000e+00 -1.0000e+00
        2 -1    0    0  503    0 +0.00000000000e+00 +0.00000000000e+00 -1.80161373270e+03  1.80161373270e+03  0.00000000000e+00 0.0000e+00 -1.0000e+00
       24  2    1    2    0    0 -4.93101122843e+01 -1.62186985306e+00 +1.97104762472e+02  2.19422786319e+02  8.28369128565e+01 0.0000e+00 0.0000e+00
       12  1    3    3    0    0 -5.22490822137e+01 +1.70279206460e+01 +6.13581437845e+01  8.23695239903e+01  0.00000000000e+00 0.0000e+00 -1.0000e+00
      -11  1    3    3    0    0 +2.93896992942e+00 -1.86497904990e+01 +1.35746618687e+02  1.37053262329e+02  0.00000000000e+00 0.0000e+00 1.0000e+00
       24  2    1    2    0    0 +2.74903814922e+01 +6.24915846866e+01 -3.68481162621e+02  3.83147982721e+02  7.97689803469e+01 0.0000e+00 0.0000e+00
        2  1    6    6  505    0 -8.15541575482e+00 +6.81569795062e+01 -2.28433924274e+02  2.38524511153e+02  0.00000000000e+00 0.0000e+00 -1.0000e+00
       -1  1    6    6    0  505 +3.56457972470e+01 -5.66539481957e+00 -1.40047238346e+02  1.44623471567e+02  0.00000000000e+00 0.0000e+00 1.0000e+00
       21  1    1    2  503  501 -2.11406653522e+02 -9.80109085704e+01 -1.28131368251e+03  1.30233009039e+03  0.00000000000e+00 0.0000e+00 -1.0000e+00
       21  1    1    2  504  502 +3.18090616946e+01 -7.18936157553e+01 +3.73163745150e+01  8.70231015260e+01  0.00000000000e+00 0.0000e+00 -1.0000e+00
        1  1    1    2  501    0 +1.12296375403e+02 +2.47575969890e+02 +1.77812162408e+03  1.79878315726e+03  0.00000000000e+00 0.0000e+00 -1.0000e+00
        1  1    1    2  502    0 +8.91209472162e+01 -1.38541160398e+02 -1.02208113397e+01  1.65047451788e+02  0.00000000000e+00 0.0000e+00 -1.0000e+00
#  0.1300000e+05  0.1300000e+05  0.1913576e+03  0.4313396e+02  0.1300000e+05  0.1300000e+05
<mgrwt>
<rscale>  3 0.15866311e+03</rscale>
<asrwt>  1 0.43133964e+02</asrwt>
<pdfrwt beam="1">  1        2 0.33140628e+00 0.94609241e+02</pdfrwt>
<pdfrwt beam="2">  1        2 0.27717134e+00 0.10538836e+03</pdfrwt>
<totfact> 0.21276578e-03</totfact>
</mgrwt>
<clustering>
<clus scale="   43.134">  6  8 -1 -1</clus>
<clus scale="   94.609">  1  3  2 -1</clus>
<clus scale="  105.388">  2  4  1 -1</clus>
<clus scale="  191.358">  2  5  1 -1</clus>
<clus scale="  244.261">  1  7  2 -1</clus>
<clus scale="  252.109">  1  3  2 -1</clus>
</clustering>
<rwgt>
  <wgt id="1">7.57473e-06</wgt>
  <wgt id="2">3.92699e-06</wgt>
  <wgt id="3">2.30131e-06</wgt>
  <wgt id="4">5.4493e-06</wgt>
  <wgt id="5">2.8251e-06</wgt>
  <wgt id="6">1.65557e-06</wgt>
  <wgt id="7">4.14179e-06</wgt>
  <wgt id="8">2.14724e-06</wgt>
  <wgt id="9">1.25833e-06</wgt>
  <wgt id="10">3.7378e-06</wgt>
  <wgt id="11">2.8251e-06</wgt>
  <wgt id="12">2.27645e-06</wgt>
  <wgt id="13">2.8251e-06</wgt>
  <wgt id="14">2.82842e-06</wgt>
  <wgt id="15">2.82245e-06</wgt>
  <wgt id="16">2.80018e-06</wgt>
  <wgt id="17">2.85306e-06</wgt>
  <wgt id="18">2.80931e-06</wgt>
  <wgt id="19">2.84872e-06</wgt>
  <wgt id="20">2.82144e-06</wgt>
  <wgt id="21">2.82759e-06</wgt>
  <wgt id="22">2.83528e-06</wgt>
  <wgt id="23">2.81076e-06</wgt>
  <wgt id="24">2.87938e-06</wgt>
  <wgt id="25">2.79189e-06</wgt>
  <wgt id="26">2.82663e-06</wgt>
  <wgt id="27">2.82307e-06</wgt>
  <wgt id="28">2.87121e-06</wgt>
  <wgt id="29">2.8084e-06</wgt>
  <wgt id="30">2.83082e-06</wgt>
  <wgt id="31">2.818e-06</wgt>
  <wgt id="32">2.82114e-06</wgt>
  <wgt id="33">2.82889e-06</wgt>
  <wgt id="34">2.7766e-06</wgt>
  <wgt id="35">2.91529e-06</wgt>
  <wgt id="36">2.83817e-06</wgt>
  <wgt id="37">2.81938e-06</wgt>
  <wgt id="38">2.81753e-06</wgt>
  <wgt id="39">2.83e-06</wgt>
  <wgt id="40">2.83683e-06</wgt>
  <wgt id="41">2.81335e-06</wgt>
  <wgt id="42">2.84962e-06</wgt>
  <wgt id="43">2.78764e-06</wgt>
  <wgt id="44">2.83083e-06</wgt>
  <wgt id="45">2.82314e-06</wgt>
  <wgt id="46">2.82174e-06</wgt>
  <wgt id="47">2.82703e-06</wgt>
  <wgt id="48">2.83996e-06</wgt>
  <wgt id="49">2.82576e-06</wgt>
  <wgt id="50">2.81987e-06</wgt>
  <wgt id="51">2.83549e-06</wgt>
  <wgt id="52">2.84579e-06</wgt>
  <wgt id="53">2.82035e-06</wgt>
</rwgt>
</event>
<event>
 12      0 +2.8251000e-06 3.45990900e+02 7.54677100e-03 1.02966000e-01
        2 -1    0    0  503    0 +0.00000000000e+00 +0.00000000000e+00 +2.40611780800e+03  2.40611780800e+03  0.00000000000e+00 0.0000e+00 -1.0000e+00
       21 -1    0    0  501  503 +0.00000000000e+00 +0.00000000000e+00 -3.23038555630e+02  3.23038555630e+02  0.00000000000e+00 0.0000e+00 1.0000e+00
       24  2    1    2    0    0 +9.81986261647e+01 +3.79486896792e+00 +6.37387757164e+02  6.49744157756e+02  7.90376261280e+01 0.0000e+00 0.0000e+00
       14  1    3    3    0    0 +4.38384456748e+01 +8.01350995785e+00 +9.85859945874e+01  1.08190683471e+02  0.00000000000e+00 0.0000e+00 -1.0000e+00
      -13  1    3    3    0    0 +5.43601804899e+01 -4.21864098993e+00 +5.38801762576e+02  5.41553474285e+02  0.00000000000e+00 0.0000e+00 1.0000e+00
       24  2    1    2    0    0 -2.10981249780e+02 +1.10470375273e+02 -6.38641612568e+01  2.59383531996e+02  8.05257350545e+01 0.0000e+00 0.0000e+00
       14  1    6    6    0    0 -9.02416917471e+01 +2.77786623985e+01 -6.21359809219e+01  1.13031398908e+02  0.00000000000e+00 0.0000e+00 -1.0000e+00
      -13  1    6    6    0    0 -1.20739558033e+02 +8.26917128747e+01 -1.72818033493e+00  1.46352133088e+02  0.00000000000e+00 0.0000e+00 1.0000e+00
       21  1    1    2  504  502 +2.78840378154e+01 -6.59937111569e+01 +9.46863182524e+01  1.18735792166e+02  0.00000000000e+00 0.0000e+00 -1.0000e+00
        1  1    1    2  501    0 -3.13953502191e+01 -2.86328516592e+01 -9.47255522269e+01  1.03819258590e+02  0.00000000000e+00 0.0000e+00 -1.0000e+00
        1  1    1    2  502    0 +1.05928841785e+02 -9.77693901161e+01 +1.51177122949e+03  1.51862833619e+03  0.00000000000e+00 0.0000e+00 -1.0000e+00
       -2  1    1    2    0  504 +1.03650942342e+01 +7.81307086910e+01 -2.17633905660e+00  7.88452869278e+01  0.00000000000e+00 0.0000e+00 1.0000e+00
#  0.1300000e+05  0.1300000e+05  0.1397356e+03  0.4249127e+02  0.1300000e+05  0.1300000e+05
<mgrwt>
<rscale>  2 0.27157854e+03</rscale>
<asrwt>  2 0.42491272e+02 0.13973558e+03</asrwt>
<pdfrwt beam="1">  2       21       -1 0.49698239e-01 0.34331647e-01 0.42491272e+02 0.34599088e+03</pdfrwt>
<pdfrwt beam="2">  1        2 0.37017197e+00 0.12568213e+03</pdfrwt>
<totfact> 0.61506293e-02</totfact>
</mgrwt>
<clustering>
<clus scale="   42.491">  2  6  1 -1</clus>
<clus scale="   73.142">  4  8 -1 -1</clus>
<clus scale="  125.682">  1  3  2 -1</clus>
<clus scale="  139.736">  5  7 -1 -1</clus>
<clus scale="  331.093">  2  4  1 -1</clus>
<clus scale="  361.559">  2  3  1 -1</clus>
</clustering>
<rwgt>
  <wgt id="1">5.0675e-06</wgt>
  <wgt id="2">3.38955e-06</wgt>
  <wgt id="3">2.43107e-06</wgt>
  <wgt id="4">4.22363e-06</wgt>
  <wgt id="5">2.8251e-06</wgt>
  <wgt id="6">2.02623e-06</wgt>
  <wgt id="7">3.59569e-06</wgt>
  <wgt id="8">2.40508e-06</wgt>
  <wgt id="9">1.72498e-06</wgt>
  <wgt id="10">4.67917e-06</wgt>
  <wgt id="11">2.8251e-06</wgt>
  <wgt id="12">1.89815e-06</wgt>
  <wgt id="13">2.8251e-06</wgt>
  <wgt id="14">2.83299e-06</wgt>
  <wgt id="15">2.81853e-06</wgt>
  <wgt id="16">2.81024e-06</wgt>
  <wgt id="17">2.8416e-06</wgt>
  <wgt id="18">2.8184e-06</wgt>
  <wgt id="19">2.83504e-06</wgt>
  <wgt id="20">2.82412e-06</wgt>
  <wgt id="21">2.82549e-06</wgt>
  <wgt id="22">2.82775e-06</wgt>
  <wgt id="23">2.82121e-06</wgt>
  <wgt id="24">2.838e-06</wgt>
  <wgt id="25">2.81715e-06</wgt>
  <wgt id="26">2.82883e-06</wgt>
  <wgt id="27">2.81981e-06</wgt>
  <wgt id="28">2.83855e-06</wgt>
  <wgt id="29">2.82007e-06</wgt>
  <wgt id="30">2.82252e-06</wgt>
  <wgt id="31">2.8271e-06</wgt>
  <wgt id="32">2.81768e-06</wgt>
  <wgt id="33">2.83197e-06</wgt>
  <wgt id="34">2.81428e-06</wgt>
  <wgt id="35">2.84536e-06</wgt>
  <wgt id="36">2.82154e-06</wgt>
  <wgt id="37">2.8284e-06</wgt>
  <wgt id="38">2.82005e-06</wgt>
  <wgt id="39">2.82811e-06</wgt>
  <wgt id="40">2.82971e-06</wgt>
  <wgt id="41">2.81971e-06</wgt>
  <wgt id="42">2.82101e-06</wgt>
  <wgt id="43">2.83498e-06</wgt>
  <wgt id="44">2.82825e-06</wgt>
  <wgt id="45">2.82386e-06</wgt>
  <wgt id="46">2.82964e-06</wgt>
  <wgt id="47">2.82218e-06</wgt>
  <wgt id="48">2.83329e-06</wgt>
  <wgt id="49">2.82597e-06</wgt>
  <wgt id="50">2.85476e-06</wgt>
  <wgt id="51">2.79368e-06</wgt>
  <wgt id="52">2.83214e-06</wgt>
  <wgt id="53">2.8237e-06</wgt>
</rwgt>
</event>
<event>
 12      0 +2.8251000e-06 2.58590800e+02 7.54677100e-03 1.03798900e-01
        2 -1    0    0  503    0 +0.00000000000e+00 +0.00000000000e+00 +1.95697659120e+03  1.95697659120e+03  0.00000000000e+00 0.0000e+00 -1.0000e+00
        2 -1    0    0  504    0 +0.00000000000e+00 +0.00000000000e+00 -6.78066456620e+02  6.78066456620e+02  0.00000000000e+00 0.0000e+00 -1.0000e+00
       24  2    1    2    0    0 +2.29402583099e+01 +2.11187480551e+01 +5.93511774242e+02  5.99874031562e+02  8.13656598807e+01 0.0000e+00 0.0000e+00
        2  1    3    3  505    0 -2.52542294561e+01 +1.49451856333e+00 +8.44047556324e+01  8.81145417313e+01  0.00000000000e+00 0.0000e+00 -1.0000e+00
       -1  1    3    3    0  505 +4.81944877660e+01 +1.96242294918e+01 +5.09107018609e+02  5.11759489830e+02  0.00000000000e+00 0.0000e+00 1.0000e+00
       24  2    1    2    0    0 +1.41172942339e+01 -1.45988955035e+01 -6.03907905744e+01  1.01964191642e+02  7.96066771353e+01 0.0000e+00 0.0000e+00
        2  1    6    6  506    0 +1.36714759413e+01 +2.30890293989e+00 +1.74609742494e+01  2.22963205246e+01  0.00000000000e+00 0.0000e+00 -1.0000e+00
       -1  1    6    6    0  506 +4.45818292603e-01 -1.69077984434e+01 -7.78517648237e+01  7.96678711170e+01  0.00000000000e+00 0.0000e+00 1.0000e+00
       21  1    1    2  503  502 -2.65881999106e+01 -1.06415175874e+02 -3.06606453070e+01  1.13891163843e+02  0.00000000000e+00 0.0000e+00 1.0000e+00
       21  1    1    2  504  501 -4.70702612199e+01 +3.39742607610e+01 +8.03862448917e+01  9.91554751557e+01  0.00000000000e+00 0.0000e+00 1.0000e+00
        1  1    1    2  501    0 -9.65757626945e+01 +6.93292216512e+02 +8.08079022989e+02  1.06909900515e+03  0.00000000000e+00 0.0000e+00 -1.0000e+00
        1  1    1    2  502    0 +1.33176671281e+02 -6.27371153950e+02 -1.12015471661e+02  6.51059180469e+02  0.00000000000e+00 0.0000e+00 -1.0000e+00
#  0.1300000e+05  0.1300000e+05  0.5073388e+02  0.4639047e+02  0.1300000e+05  0.1300000e+05
<mgrwt>
<rscale>  2 0.25541978e+03</rscale>
<asrwt>  2 0.46390473e+02 0.50733879e+02</asrwt>
<pdfrwt beam="1">  1        2 0.30107332e+00 0.87132838e+02</pdfrwt>
<pdfrwt beam="2">  1        2 0.10431792e+00 0.82936818e+02</pdfrwt>
<totfact> 0.12069244e-02</totfact>
</mgrwt>
<clustering>
<clus scale="   46.390">  6  7 -1 -1</clus>
<clus scale="   50.734">  5  8 -1 -1</clus>
<clus scale="   82.937">  2  4  1 -1</clus>
<clus scale="   87.133">  1  3  2 -1</clus>
<clus scale="  760.231">  2  5  1 -1</clus>
<clus scale="  767.440">  1  3  2 -1</clus>
</clustering>
<rwgt>
  <wgt id="1">5.20877e-06</wgt>
  <wgt id="2">3.47103e-06</wgt>
  <wgt id="3">2.48316e-06</wgt>
  <wgt id="4">4.23946e-06</wgt>
  <wgt id="5">2.8251e-06</wgt>
  <wgt id="6">2.02107e-06</wgt>
  <wgt id="7">3.55009e-06</wgt>
  <wgt id="8">2.36572e-06</wgt>
  <wgt id="9">1.69243e-06</wgt>
  <wgt id="10">4.87779e-06</wgt>
  <wgt id="11">2.8251e-06</wgt>
  <wgt id="12">1.84925e-06</wgt>
  <wgt id="13">2.8251e-06</wgt>
  <wgt id="14">2.82809e-06</wgt>
  <wgt id="15">2.82262e-06</wgt>
  <wgt id="16">2.81071e-06</wgt>
  <wgt id="17">2.8411e-06</wgt>
  <wgt id="18">2.81088e-06</wgt>
  <wgt id="19">2.84618e-06</wgt>
  <wgt id="20">2.81573e-06</wgt>
  <wgt id="21">2.83142e-06</wgt>
  <wgt id="22">2.8333e-06</wgt>
  <wgt id="23">2.81337e-06</wgt>
  <wgt id="24">2.87027e-06</wgt>
  <wgt id="25">2.79727e-06</wgt>
  <wgt id="26">2.82497e-06</wgt>
  <wgt id="27">2.82528e-06</wgt>
  <wgt id="28">2.87174e-06</wgt>
  <wgt id="29">2.80819e-06</wgt>
  <wgt id="30">2.83051e-06</wgt>
  <wgt id="31">2.81818e-06</wgt>
  <wgt id="32">2.82583e-06</wgt>
  <wgt id="33">2.82435e-06</wgt>
  <wgt id="34">2.78359e-06</wgt>
  <wgt id="35">2.90179e-06</wgt>
  <wgt id="36">2.84347e-06</wgt>
  <wgt id="37">2.81623e-06</wgt>
  <wgt id="38">2.81565e-06</wgt>
  <wgt id="39">2.83022e-06</wgt>
  <wgt id="40">2.83061e-06</wgt>
  <wgt id="41">2.81983e-06</wgt>
  <wgt id="42">2.84867e-06</wgt>
  <wgt id="43">2.78637e-06</wgt>
  <wgt id="44">2.8337e-06</wgt>
  <wgt id="45">2.82187e-06</wgt>
  <wgt id="46">2.82418e-06</wgt>
  <wgt id="47">2.82579e-06</wgt>
  <wgt id="48">2.82003e-06</wgt>
  <wgt id="49">2.83188e-06</wgt>
  <wgt id="50">2.8165e-06</wgt>
  <wgt id="51">2.83794e-06</wgt>
  <wgt id="52">2.83813e-06</wgt>
  <wgt id="53">2.82188e-06</wgt>
</rwgt>
</event>
<event>
 11      0 +2.8251000e-06 2.14439800e+02 7.54677100e-03 1.08678100e-01
       -3 -1    0    0    0  501 +0.00000000000e+00 +0.00000000000e+00 +2.22029119980e+02  2.22029119980e+02  0.00000000000e+00 0.0000e+00 1.0000e+00
        2 -1    0    0  503    0 +0.00000000000e+00 +0.00000000000e+00 -1.40270830980e+03  1.40270830980e+03  0.00000000000e+00 0.0000e+00 -1.0000e+00
       24  2    1    2    0    0 +8.50338425920e+01 -6.35887551522e+01 -6.36668446106e+02  6.50426778434e+02  8.02122164589e+01 0.0000e+00 0.0000e+00
        4  1    3    3  504    0 +1.52897005068e+01 -5.58927346667e+01 -2.02609170648e+02  2.10732647591e+02  0.00000000000e+00 0.0000e+00 -1.0000e+00
       -3  1    3    3    0  504 +6.97441420852e+01 -7.69602048549e+00 -4.34059275458e+02  4.39694130843e+02  0.00000000000e+00 0.0000e+00 1.0000e+00
       24  2    1    2    0    0 -2.99268467864e+01 +6.98229830598e+01 -2.20405118527e+01  1.13269372393e+02  8.10758992405e+01 0.0000e+00 0.0000e+00
        2  1    6    6  505    0 -2.33111732777e+01 +8.53258943881e+01 -3.15562253818e+01  9.39133345860e+01  0.00000000000e+00 0.0000e+00 -1.0000e+00
       -1  1    6    6    0  505 -6.61567350871e+00 -1.55029113283e+01 +9.51571352901e+00  1.93560378072e+01  0.00000000000e+00 0.0000e+00 1.0000e+00
       21  1    1    2  503  501 -1.02004634254e+02 +8.24193501967e+01 -4.45868392783e+01  1.38513107441e+02  0.00000000000e+00 0.0000e+00 -1.0000e+00
        1  1    1    2  502    0 +5.81205760079e+01 +5.84217914092e+01 -5.51380572068e+02  5.57504836141e+02  0.00000000000e+00 0.0000e+00 -1.0000e+00
       -4  1    1    2    0  502 -1.12229375594e+01 -1.47075369513e+02 +7.39971794851e+01  1.65023335370e+02  0.00000000000e+00 0.0000e+00 1.0000e+00
#  0.1300000e+05  0.1300000e+05  0.1372194e+03  0.1300000e+05  0.1300000e+05
<mgrwt>
<rscale>  3 0.18179997e+03</rscale>
<asrwt>0</asrwt>
<pdfrwt beam="1">  1        2 0.21580128e+00 0.21443982e+03</pdfrwt>
<pdfrwt beam="2">  1       -3 0.34158326e-01 0.11077937e+03</pdfrwt>
<totfact> 0.14401476e-01</totfact>
</mgrwt>
<clustering>
<clus scale="   82.417">  3  6 -1 -1</clus>
<clus scale="  110.779">  1  4  2 -1</clus>
<clus scale="  104.692">  1  7  2 -1</clus>
<clus scale="  137.219">  1  5  2 -1</clus>
<clus scale="  214.440">  2  3  1 -1</clus>
</clustering>
<rwgt>
  <wgt id="1">5.58398e-06</wgt>
  <wgt id="2">2.93766e-06</wgt>
  <wgt id="3">1.73815e-06</wgt>
  <wgt id="4">5.37003e-06</wgt>
  <wgt id="5">2.8251e-06</wgt>
  <wgt id="6">1.67155e-06</wgt>
  <wgt id="7">5.05726e-06</wgt>
  <wgt id="8">2.66056e-06</wgt>
  <wgt id="9">1.57419e-06</wgt>
  <wgt id="10">2.8251e-06</wgt>
  <wgt id="11">2.8251e-06</wgt>
  <wgt id="12">2.8251e-06</wgt>
  <wgt id="13">2.8251e-06</wgt>
  <wgt id="14">2.83291e-06</wgt>
  <wgt id="15">2.81867e-06</wgt>
  <wgt id="16">2.7938e-06</wgt>
  <wgt id="17">2.86027e-06</wgt>
  <wgt id="18">2.84471e-06</wgt>
  <wgt id="19">2.79566e-06</wgt>
  <wgt id="20">2.80282e-06</wgt>
  <wgt id="21">2.84008e-06</wgt>
  <wgt id="22">2.84942e-06</wgt>
  <wgt id="23">2.7906e-06</wgt>
  <wgt id="24">2.83803e-06</wgt>
  <wgt id="25">2.81698e-06</wgt>
  <wgt id="26">2.82588e-06</wgt>
  <wgt id="27">2.82407e-06</wgt>
  <wgt id="28">2.84822e-06</wgt>
  <wgt id="29">2.81665e-06</wgt>
  <wgt id="30">2.83974e-06</wgt>
  <wgt id="31">2.80551e-06</wgt>
  <wgt id="32">2.81933e-06</wgt>
  <wgt id="33">2.83057e-06</wgt>
  <wgt id="34">2.78943e-06</wgt>
  <wgt id="35">2.89157e-06</wgt>
  <wgt id="36">2.8424e-06</wgt>
  <wgt id="37">2.8148e-06</wgt>
  <wgt id="38">2.80965e-06</wgt>
  <wgt id="39">2.83266e-06</wgt>
  <wgt id="40">2.83185e-06</wgt>
  <wgt id="41">2.81984e-06</wgt>
  <wgt id="42">2.83808e-06</wgt>
  <wgt id="43">2.80264e-06</wgt>
  <wgt id="44">2.80452e-06</wgt>
  <wgt id="45">2.83304e-06</wgt>
  <wgt id="46">2.85596e-06</wgt>
  <wgt id="47">2.80179e-06</wgt>
  <wgt id="48">2.82046e-06</wgt>
  <wgt id="49">2.83072e-06</wgt>
  <wgt id="50">2.8317e-06</wgt>
  <wgt id="51">2.81108e-06</wgt>
  <wgt id="52">2.76381e-06</wgt>
  <wgt id="53">2.8573e-06</wgt>
</rwgt>
</event>
<event>
 10      0 +2.8251000e-06 2.52184500e+02 7.54677100e-03 1.07017000e-01
       -1 -1    0    0    0  501 +0.00000000000e+00 +0.00000000000e+00 +8.07236178380e+01  8.07236178380e+01  0.00000000000e+00 0.0000e+00 1.0000e+00
        2 -1    0    0  502    0 +0.00000000000e+00 +0.00000000000e+00 -9.65796214220e+02  9.65796214220e+02  0.00000000000e+00 0.0000e+00 -1.0000e+00
       24  2    1    2    0    0 +5.29151416984e+01 -3.60391338691e+01 -5.63454634889e+00  9.76723737143e+01  7.35480324920e+01 0.0000e+00 0.0000e+00
        4  1    3    3  503    0 +4.08473232796e+01 +6.11425993066e+00 -2.65425568127e+01  4.90957769647e+01  0.00000000000e+00 0.0000e+00 -1.0000e+00
       -3  1    3    3    0  503 +1.20678184188e+01 -4.21533937997e+01 +2.09080104638e+01  4.85765967497e+01  0.00000000000e+00 0.0000e+00 1.0000e+00
       24  2    1    2    0    0 -4.46239417451e+01 +4.79456398381e+01 -7.63372586281e+02  7.72113605794e+02  9.55595846073e+01 0.0000e+00 0.0000e+00
       12  1    6    6    0    0 -1.53944385047e+01 +2.36625154429e+01 -6.78906212207e+02  6.79492861146e+02  0.00000000000e+00 0.0000e+00 -1.0000e+00
      -11  1    6    6    0    0 -2.92295032404e+01 +2.42831243951e+01 -8.44663740736e+01  9.26207446483e+01  0.00000000000e+00 0.0000e+00 1.0000e+00
        1  1    1    2  502    0 +3.76803782259e+01 -4.59545717222e+01 -1.01636116438e+02  1.17735014886e+02  0.00000000000e+00 0.0000e+00 -1.0000e+00
       -2  1    1    2    0  501 -4.59715781792e+01 +3.40480657532e+01 -1.44293473135e+01  5.89988376641e+01  0.00000000000e+00 0.0000e+00 1.0000e+00
#  0.1300000e+05  0.1300000e+05  0.6402959e+02  0.1300000e+05
<mgrwt>
<rscale>  2 0.20337955e+03</rscale>
<asrwt>0</asrwt>
<pdfrwt beam="1">  1        2 0.14858403e+00 0.10667774e+03</pdfrwt>
<pdfrwt beam="2">  1       -1 0.12419018e-01 0.25218452e+03</pdfrwt>
<totfact> 0.17527861e+01</totfact>
</mgrwt>
<clustering>
<clus scale="   53.968">  3  6 -1 -1</clus>
<clus scale="   64.030">  3  5 -1 -1</clus>
<clus scale="  106.678">  2  4  1 -1</clus>
<clus scale="  252.185">  2  3  1 -1</clus>
</clustering>
<rwgt>
  <wgt id="1">4.26509e-06</wgt>
  <wgt id="2">2.8007e-06</wgt>
  <wgt id="3">1.98395e-06</wgt>
  <wgt id="4">4.30225e-06</wgt>
  <wgt id="5">2.8251e-06</wgt>
  <wgt id="6">2.00124e-06</wgt>
  <wgt id="7">4.25192e-06</wgt>
  <wgt id="8">2.79205e-06</wgt>
  <wgt id="9">1.97783e-06</wgt>
  <wgt id="10">2.8251e-06</wgt>
  <wgt id="11">2.8251e-06</wgt>
  <wgt id="12">2.8251e-06</wgt>
  <wgt id="13">2.8251e-06</wgt>
  <wgt id="14">2.8297e-06</wgt>
  <wgt id="15">2.82126e-06</wgt>
  <wgt id="16">2.83134e-06</wgt>
  <wgt id="17">2.81791e-06</wgt>
  <wgt id="18">2.81445e-06</wgt>
  <wgt id="19">2.84085e-06</wgt>
  <wgt id="20">2.82536e-06</wgt>
  <wgt id="21">2.8249e-06</wgt>
  <wgt id="22">2.83037e-06</wgt>
  <wgt id="23">2.8176e-06</wgt>
  <wgt id="24">2.85334e-06</wgt>
  <wgt id="25">2.8077e-06</wgt>
  <wgt id="26">2.82719e-06</wgt>
  <wgt id="27">2.82217e-06</wgt>
  <wgt id="28">2.84656e-06</wgt>
  <wgt id="29">2.81727e-06</wgt>
  <wgt id="30">2.83899e-06</wgt>
  <wgt id="31">2.8048e-06</wgt>
  <wgt id="32">2.8308e-06</wgt>
  <wgt id="33">2.81963e-06</wgt>
  <wgt id="34">2.79377e-06</wgt>
  <wgt id="35">2.88175e-06</wgt>
  <wgt id="36">2.85488e-06</wgt>
  <wgt id="37">2.80803e-06</wgt>
  <wgt id="38">2.81852e-06</wgt>
  <wgt id="39">2.82823e-06</wgt>
  <wgt id="40">2.82483e-06</wgt>
  <wgt id="41">2.82722e-06</wgt>
  <wgt id="42">2.83985e-06</wgt>
  <wgt id="43">2.79409e-06</wgt>
  <wgt id="44">2.83099e-06</wgt>
  <wgt id="45">2.82297e-06</wgt>
  <wgt id="46">2.81689e-06</wgt>
  <wgt id="47">2.83074e-06</wgt>
  <wgt id="48">2.823e-06</wgt>
  <wgt id="49">2.8267e-06</wgt>
  <wgt id="50">2.8166e-06</wgt>
  <wgt id="51">2.82072e-06</wgt>
  <wgt id="52">2.8371e-06</wgt>
  <wgt id="53">2.82178e-06</wgt>
</rwgt>
</event>
<event>
 11      0 +2.8251000e-06 4.57357200e+02 7.54677100e-03 1.01047500e-01
        2 -1    0    0  503    0 +0.00000000000e+00 +0.00000000000e+00 +1.39527849910e+03  1.39527849910e+03  0.00000000000e+00 0.0000e+00 -1.0000e+00
       -1 -1    0    0    0  501 +0.00000000000e+00 +0.00000000000e+00 -3.63122763140e+02  3.63122763140e+02  0.00000000000e+00 0.0000e+00 1.0000e+00
       24  2    1    2    0    0 +1.77979709351e+02 +3.63362782676e+02 +4.36142401161e+02  5.99293402114e+02  7.22710104496e+01 0.0000e+00 0.0000e+00
        4  1    3    3  504    0 +7.54856831080e+00 +4.34768098965e+00 +2.92630209987e+01  3.05320751260e+01  0.00000000000e+00 0.0000e+00 -1.0000e+00
       -3  1    3    3    0  504 +1.70431141040e+02 +3.59015101687e+02 +4.06879380162e+02  5.68761326988e+02  0.00000000000e+00 0.0000e+00 1.0000e+00
       24  2    1    2    0    0 +3.80972016631e+01 +6.10586410007e+01 -2.59776750411e+01  1.10457006074e+02  7.96640205798e+01 0.0000e+00 0.0000e+00
        4  1    6    6  505    0 +2.43313229175e+00 -1.60803338821e+01 +8.96353277172e+00  1.85699270397e+01  0.00000000000e+00 0.0000e+00 -1.0000e+00
       -3  1    6    6    0  505 +3.56640693713e+01 +7.71389748828e+01 -3.49412078128e+01  9.18870790346e+01  0.00000000000e+00 0.0000e+00 1.0000e+00
       21  1    1    2  503  501 -2.20815630792e+01 -4.02008306314e+01 -3.82796319635e+01  5.97413795851e+01  0.00000000000e+00 0.0000e+00 -1.0000e+00
        1  1    1    2  502    0 -6.24131965511e+01 -5.16474433802e+02 +5.97107793791e+02  7.91946314646e+02  0.00000000000e+00 0.0000e+00 -1.0000e+00
       -2  1    1    2    0  502 -1.31582151384e+02 +1.32253840756e+02 +6.31628480125e+01  1.96963159821e+02  0.00000000000e+00 0.0000e+00 1.0000e+00
#  0.1300000e+05  0.1300000e+05  0.4578531e+02  0.1300000e+05  0.1300000e+05
<mgrwt>
<rscale>  2 0.31401149e+03</rscale>
<asrwt>  1 0.45785306e+02</asrwt>
<pdfrwt beam="1">  1        2 0.21465823e+00 0.45735718e+03</pdfrwt>
<pdfrwt beam="2">  2       -1       -1 0.55865040e-01 0.47896014e-01 0.45785306e+02 0.45735718e+03</pdfrwt>
<totfact> 0.10203770e-01</totfact>
</mgrwt>
<clustering>
<clus scale="   45.785">  2  5  1 -1</clus>
<clus scale="  101.629">  2  4  1 -1</clus>
<clus scale="  187.251">  2  7  1 -1</clus>
<clus scale="  450.231">  2  6  1 -1</clus>
<clus scale="  457.357">  1  3  2 -1</clus>
</clustering>
<rwgt>
  <wgt id="1">4.67322e-06</wgt>
  <wgt id="2">3.15347e-06</wgt>
  <wgt id="3">2.27517e-06</wgt>
  <wgt id="4">4.1866e-06</wgt>
  <wgt id="5">2.8251e-06</wgt>
  <wgt id="6">2.03825e-06</wgt>
  <wgt id="7">3.7747e-06</wgt>
  <wgt id="8">2.54715e-06</wgt>
  <wgt id="9">1.83772e-06</wgt>
  <wgt id="10">3.72468e-06</wgt>
  <wgt id="11">2.8251e-06</wgt>
  <wgt id="12">2.2812e-06</wgt>
  <wgt id="13">2.8251e-06</wgt>
  <wgt id="14">2.8301e-06</wgt>
  <wgt id="15">2.8211e-06</wgt>
  <wgt id="16">2.83203e-06</wgt>
  <wgt id="17">2.81741e-06</wgt>
  <wgt id="18">2.80992e-06</wgt>
  <wgt id="19">2.84763e-06</wgt>
  <wgt id="20">2.84474e-06</wgt>
  <wgt id="21">2.81196e-06</wgt>
  <wgt id="22">2.83662e-06</wgt>
  <wgt id="23">2.80892e-06</wgt>
  <wgt id="24">2.8856e-06</wgt>
  <wgt id="25">2.78842e-06</wgt>
  <wgt id="26">2.82636e-06</wgt>
  <wgt id="27">2.82362e-06</wgt>
  <wgt id="28">2.85776e-06</wgt>
  <wgt id="29">2.81343e-06</wgt>
  <wgt id="30">2.82223e-06</wgt>
  <wgt id="31">2.82836e-06</wgt>
  <wgt id="32">2.83942e-06</wgt>
  <wgt id="33">2.81148e-06</wgt>
  <wgt id="34">2.80702e-06</wgt>
  <wgt id="35">2.85852e-06</wgt>
  <wgt id="36">2.83887e-06</wgt>
  <wgt id="37">2.81379e-06</wgt>
  <wgt id="38">2.84707e-06</wgt>
  <wgt id="39">2.81552e-06</wgt>
  <wgt id="40">2.81817e-06</wgt>
  <wgt id="41">2.83269e-06</wgt>
  <wgt id="42">2.84427e-06</wgt>
  <wgt id="43">2.78267e-06</wgt>
  <wgt id="44">2.8334e-06</wgt>
  <wgt id="45">2.82236e-06</wgt>
  <wgt id="46">2.8222e-06</wgt>
  <wgt id="47">2.8282e-06</wgt>
  <wgt id="48">2.82795e-06</wgt>
  <wgt id="49">2.82701e-06</wgt>
  <wgt id="50">2.83153e-06</wgt>
  <wgt id="51">2.82349e-06</wgt>
  <wgt id="52">2.83102e-06</wgt>
  <wgt id="53">2.82378e-06</wgt>
</rwgt>
</event>
<event>
 10      0 +2.8251000e-06 3.30988400e+02 7.54677100e-03 1.04851800e-01
        2 -1    0    0  502    0 +0.00000000000e+00 +0.00000000000e+00 +3.20035467340e+02  3.20035467340e+02  0.00000000000e+00 0.0000e+00 -1.0000e+00
       -1 -1    0    0    0  501 +0.00000000000e+00 +0.00000000000e+00 -1.89757083230e+02  1.89757083230e+02  0.00000000000e+00 0.0000e+00 1.0000e+00
       24  2    1    2    0    0 -7.35643050704e+00 -3.12039816277e+01 -7.97735367371e+01  1.18008981884e+02  8.08362363211e+01 0.0000e+00 0.0000e+00
        2  1    3    3  503    0 +1.99224820670e+01 +2.60763411440e+00 +6.74607874406e+00  2.11946839044e+01  0.00000000000e+00 0.0000e+00 -1.0000e+00
       -1  1    3    3    0  503 -2.72789125740e+01 -3.38116157421e+01 -8.65196154812e+01  9.68142979798e+01  0.00000000000e+00 0.0000e+00 1.0000e+00
       24  2    1    2    0    0 +1.73146730859e+01 -4.36600184336e+00 +1.35676883156e+02  1.58163032697e+02  7.92998638903e+01 0.0000e+00 0.0000e+00
       14  1    6    6    0    0 +4.47978483702e+01 -2.05173181173e+01 +7.78822011043e+01  9.21598872079e+01  0.00000000000e+00 0.0000e+00 -1.0000e+00
      -13  1    6    6    0    0 -2.74831752842e+01 +1.61513162739e+01 +5.77946820515e+01  6.60031454896e+01  0.00000000000e+00 0.0000e+00 1.0000e+00
        1  1    1    2  502    0 +1.01823302641e+02 +3.35875657906e+00 +5.47124712225e+01  1.15640480429e+02  0.00000000000e+00 0.0000e+00 -1.0000e+00
       -2  1    1    2    0  501 -1.11781545220e+02 +3.22112268920e+01 +1.96625664688e+01  1.17980055560e+02  0.00000000000e+00 0.0000e+00 1.0000e+00
#  0.1300000e+05  0.1300000e+05  0.1300000e+05  0.1163940e+03
<mgrwt>
<rscale>  1 0.23670768e+03</rscale>
<asrwt>  1 0.11639396e+03</asrwt>
<pdfrwt beam="1">  1        2 0.49236226e-01 0.86578732e+02</pdfrwt>
<pdfrwt beam="2">  1       -1 0.29193397e-01 0.33098837e+03</pdfrwt>
<totfact> 0.16834873e+01</totfact>
</mgrwt>
<clustering>
<clus scale="   86.579">  1  3  2 -1</clus>
<clus scale="   98.981">  4  5 -1 -1</clus>
<clus scale="  116.394">  4  6 -1 -1</clus>
<clus scale="  330.988">  1  3  2 -1</clus>
</clustering>
<rwgt>
  <wgt id="1">3.34205e-06</wgt>
  <wgt id="2">2.72174e-06</wgt>
  <wgt id="3">2.29836e-06</wgt>
  <wgt id="4">3.46897e-06</wgt>
  <wgt id="5">2.8251e-06</wgt>
  <wgt id="6">2.38565e-06</wgt>
  <wgt id="7">3.50463e-06</wgt>
  <wgt id="8">2.85414e-06</wgt>
  <wgt id="9">2.41017e-06</wgt>
  <wgt id="10">3.55823e-06</wgt>
  <wgt id="11">2.8251e-06</wgt>
  <wgt id="12">2.34575e-06</wgt>
  <wgt id="13">2.8251e-06</wgt>
  <wgt id="14">2.83056e-06</wgt>
  <wgt id="15">2.82058e-06</wgt>
  <wgt id="16">2.84402e-06</wgt>
  <wgt id="17">2.80384e-06</wgt>
  <wgt id="18">2.81342e-06</wgt>
  <wgt id="19">2.84239e-06</wgt>
  <wgt id="20">2.8323e-06</wgt>
  <wgt id="21">2.82025e-06</wgt>
  <wgt id="22">2.83188e-06</wgt>
  <wgt id="23">2.81543e-06</wgt>
  <wgt id="24">2.86181e-06</wgt>
  <wgt id="25">2.80265e-06</wgt>
  <wgt id="26">2.82504e-06</wgt>
  <wgt id="27">2.82524e-06</wgt>
  <wgt id="28">2.83782e-06</wgt>
  <wgt id="29">2.8205e-06</wgt>
  <wgt id="30">2.83162e-06</wgt>
  <wgt id="31">2.81552e-06</wgt>
  <wgt id="32">2.83706e-06</wgt>
  <wgt id="33">2.81361e-06</wgt>
  <wgt id="34">2.80787e-06</wgt>
  <wgt id="35">2.85598e-06</wgt>
  <wgt id="36">2.83861e-06</wgt>
  <wgt id="37">2.81738e-06</wgt>
  <wgt id="38">2.82904e-06</wgt>
  <wgt id="39">2.82319e-06</wgt>
  <wgt id="40">2.82055e-06</wgt>
  <wgt id="41">2.83056e-06</wgt>
  <wgt id="42">2.8415e-06</wgt>
  <wgt id="43">2.78405e-06</wgt>
  <wgt id="44">2.83334e-06</wgt>
  <wgt id="45">2.82206e-06</wgt>
  <wgt id="46">2.81669e-06</wgt>
  <wgt id="47">2.83155e-06</wgt>
  <wgt id="48">2.80752e-06</wgt>
  <wgt id="49">2.8324e-06</wgt>
  <wgt id="50">2.82698e-06</wgt>
  <wgt id="51">2.81522e-06</wgt>
  <wgt id="52">2.82762e-06</wgt>
  <wgt id="53">2.82413e-06</wgt>
</rwgt>
</event>
<event>
 12      0 +2.8251000e-06 2.32021800e+02 7.54677100e-03 1.07199200e-01
        2 -1    0    0  503    0 +0.00000000000e+00 +0.00000000000e+00 +2.01993498690e+03  2.01993498690e+03  0.00000000000e+00 0.0000e+00 -1.0000e+00
        2 -1    0    0  502    0 +0.00000000000e+00 +0.00000000000e+00 -1.03483514030e+03  1.03483514030e+03  0.00000000000e+00 0.0000e+00 -1.0000e+00
       24  2    1    2    0    0 +1.71584336706e+02 -3.20318349169e+01 +3.88787269460e+02  4.33618911901e+02  8.00162284351e+01 0.0000e+00 0.0000e+00
        4  1    3    3  505    0 +1.69404254595e+02 -9.82100065318e+00 +3.42245944639e+02  3.82003324790e+02  0.00000000000e+00 0.0000e+00 -1.0000e+00
       -3  1    3    3    0  505 +2.18008211060e+00 -2.22108342637e+01 +4.65413248216e+01  5.16155871113e+01  0.00000000000e+00 0.0000e+00 1.0000e+00
       24  2    1    2    0    0 -8.03062459014e+00 -5.19046425461e+01 -6.04375053658e+02  6.12273108112e+02  8.27681737341e+01 0.0000e+00 0.0000e+00
        4  1    6    6  506    0 -4.04344809684e+01 -4.53842382952e+01 -4.68940686008e+02  4.72863662519e+02  0.00000000000e+00 0.0000e+00 -1.0000e+00
       -3  1    6    6    0  506 +3.24038563783e+01 -6.52040425093e+00 -1.35434367650e+02  1.39409445593e+02  0.00000000000e+00 0.0000e+00 1.0000e+00
       21  1    1    2  503  504 -1.06615530061e+02 -7.34283487983e+00 +1.38284090613e+02  1.74766353143e+02  0.00000000000e+00 0.0000e+00 -1.0000e+00
       21  1    1    2  504  501 -6.29929091126e+01 -1.53231589057e+02 +1.06333755325e+03  1.07616670578e+03  0.00000000000e+00 0.0000e+00 -1.0000e+00
        1  1    1    2  501    0 -1.78070071341e+02 +3.45467771069e+02 -2.26437363902e+02  4.49811972858e+02  0.00000000000e+00 0.0000e+00 -1.0000e+00
        1  1    1    2  502    0 +1.84124798399e+02 -1.00956869669e+02 +2.25503350836e+02  3.08133075402e+02  0.00000000000e+00 0.0000e+00 -1.0000e+00
#  0.1300000e+05  0.1300000e+05  0.1074240e+03  0.1877502e+03  0.1300000e+05  0.1300000e+05
<mgrwt>
<rscale>  3 0.20085533e+03</rscale>
<asrwt>  1 0.10742403e+03</asrwt>
<pdfrwt beam="1">  2        2        2 0.31075923e+00 0.27306937e+00 0.10742403e+03 0.23202177e+03</pdfrwt>
<pdfrwt beam="2">  1        2 0.15920541e+00 0.96870017e+02</pdfrwt>
<totfact> 0.46530492e-03</totfact>
</mgrwt>
<clustering>
<clus scale="   96.870">  2  4  1 -1</clus>
<clus scale="  107.424">  1  5  2 -1</clus>
<clus scale="  172.493">  1  3  2 -1</clus>
<clus scale="  187.750">  1  6  2 -1</clus>
<clus scale="  312.095">  2  7  1 -1</clus>
<clus scale="  312.095">  1  3  2 -1</clus>
</clustering>
<rwgt>
  <wgt id="1">6.61957e-06</wgt>
  <wgt id="2">3.51798e-06</wgt>
  <wgt id="3">2.0957e-06</wgt>
  <wgt id="4">5.31582e-06</wgt>
  <wgt id="5">2.8251e-06</wgt>
  <wgt id="6">1.68294e-06</wgt>
  <wgt id="7">4.42815e-06</wgt>
  <wgt id="8">2.35335e-06</wgt>
  <wgt id="9">1.40191e-06</wgt>
  <wgt id="10">3.57001e-06</wgt>
  <wgt id="11">2.8251e-06</wgt>
  <wgt id="12">2.3408e-06</wgt>
  <wgt id="13">2.8251e-06</wgt>
  <wgt id="14">2.82812e-06</wgt>
  <wgt id="15">2.82256e-06</wgt>
  <wgt id="16">2.80591e-06</wgt>
  <wgt id="17">2.84657e-06</wgt>
  <wgt id="18">2.81023e-06</wgt>
  <wgt id="19">2.84716e-06</wgt>
  <wgt id="20">2.8176e-06</wgt>
  <wgt id="21">2.83012e-06</wgt>
  <wgt id="22">2.834e-06</wgt>
  <wgt id="23">2.81224e-06</wgt>
  <wgt id="24">2.87375e-06</wgt>
  <wgt id="25">2.79514e-06</wgt>
  <wgt id="26">2.8257e-06</wgt>
  <wgt id="27">2.82428e-06</wgt>
  <wgt id="28">2.87408e-06</wgt>
  <wgt id="29">2.80722e-06</wgt>
  <wgt id="30">2.8309e-06</wgt>
  <wgt id="31">2.81778e-06</wgt>
  <wgt id="32">2.82439e-06</wgt>
  <wgt id="33">2.82575e-06</wgt>
  <wgt id="34">2.78105e-06</wgt>
  <wgt id="35">2.90671e-06</wgt>
  <wgt id="36">2.84602e-06</wgt>
  <wgt id="37">2.81398e-06</wgt>
  <wgt id="38">2.81455e-06</wgt>
  <wgt id="39">2.83087e-06</wgt>
  <wgt id="40">2.83196e-06</wgt>
  <wgt id="41">2.81838e-06</wgt>
  <wgt id="42">2.84975e-06</wgt>
  <wgt id="43">2.78613e-06</wgt>
  <wgt id="44">2.83194e-06</wgt>
  <wgt id="45">2.82263e-06</wgt>
  <wgt id="46">2.8231e-06</wgt>
  <wgt id="47">2.82632e-06</wgt>
  <wgt id="48">2.82944e-06</wgt>
  <wgt id="49">2.82868e-06</wgt>
  <wgt id="50">2.81778e-06</wgt>
  <wgt id="51">2.83699e-06</wgt>
  <wgt id="52">2.84272e-06</wgt>
  <wgt id="53">2.82075e-06</wgt>
</rwgt>
</event>
<event>
 10      0 +2.8251000e-06 2.83448900e+02 7.54677100e-03 1.05007900e-01
        2 -1    0    0  502    0 +0.00000000000e+00 +0.00000000000e+00 +1.00921182420e+02  1.00921182420e+02  0.00000000000e+00 0.0000e+00 -1.0000e+00
        2 -1    0    0  501    0 +0.00000000000e+00 +0.00000000000e+00 -1.27841215030e+03  1.27841215030e+03  0.00000000000e+00 0.0000e+00 -1.0000e+00
       24  2    1    2    0    0 -7.88422048421e+00 +9.25996599480e+01 -2.36190587560e+02  2.66215027375e+02  8.02968815888e+01 0.0000e+00 0.0000e+00
       12  1    3    3    0    0 +1.12510078208e+01 -1.05671016526e+01 -1.56571119889e+01  2.19862222802e+01  0.00000000000e+00 0.0000e+00 -1.0000e+00
      -11  1    3    3    0    0 -1.91352283050e+01 +1.03166761601e+02 -2.20533475571e+02  2.44228805094e+02  0.00000000000e+00 0.0000e+00 1.0000e+00
       24  2    1    2    0    0 -3.92611031172e+01 +9.85978191023e+01 -3.52513404765e+02  3.76300917405e+02  7.79340474446e+01 0.0000e+00 0.0000e+00
       16  1    6    6    0    0 -1.97599020380e+01 +1.07277261209e+02 -2.73376857426e+02  2.94336152515e+02  0.00000000000e+00 0.0000e+00 -1.0000e+00
      -15  1    6    6    0    0 -1.95012010792e+01 -8.67944210619e+00 -7.91365473385e+01  8.19647648899e+01  1.77700000000e+00 0.0000e+00 1.0000e+00
        1  1    1    2  501    0 -2.50804986833e+01 +8.32030412782e+01 -3.65674194956e+02  3.75858210432e+02  0.00000000000e+00 0.0000e+00 -1.0000e+00
        1  1    1    2  502    0 +7.22258222847e+01 -2.74400520329e+02 -2.23112780599e+02  3.60959177509e+02  0.00000000000e+00 0.0000e+00 -1.0000e+00
#  0.1300000e+05  0.1300000e+05  0.1300000e+05  0.1300000e+05
<mgrwt>
<rscale>  2 0.23408407e+03</rscale>
<asrwt>0</asrwt>
<pdfrwt beam="1">  1        2 0.15526336e-01 0.28344891e+03</pdfrwt>
<pdfrwt beam="2">  1        2 0.19667879e+00 0.13184481e+03</pdfrwt>
<totfact> 0.12429198e+01</totfact>
</mgrwt>
<clustering>
<clus scale="   86.895">  3  5 -1 -1</clus>
<clus scale="  131.845">  2  4  1 -1</clus>
<clus scale="  249.639">  2  6  1 -1</clus>
<clus scale="  283.449">  1  3  2 -1</clus>
</clustering>
<rwgt>
  <wgt id="1">4.43509e-06</wgt>
  <wgt id="2">2.93941e-06</wgt>
  <wgt id="3">2.09506e-06</wgt>
  <wgt id="4">4.26262e-06</wgt>
  <wgt id="5">2.8251e-06</wgt>
  <wgt id="6">2.01358e-06</wgt>
  <wgt id="7">4.06861e-06</wgt>
  <wgt id="8">2.69652e-06</wgt>
  <wgt id="9">1.92194e-06</wgt>
  <wgt id="10">2.8251e-06</wgt>
  <wgt id="11">2.8251e-06</wgt>
  <wgt id="12">2.8251e-06</wgt>
  <wgt id="13">2.8251e-06</wgt>
  <wgt id="14">2.82883e-06</wgt>
  <wgt id="15">2.82203e-06</wgt>
  <wgt id="16">2.8248e-06</wgt>
  <wgt id="17">2.8253e-06</wgt>
  <wgt id="18">2.81493e-06</wgt>
  <wgt id="19">2.84018e-06</wgt>
  <wgt id="20">2.82047e-06</wgt>
  <wgt id="21">2.82817e-06</wgt>
  <wgt id="22">2.8302e-06</wgt>
  <wgt id="23">2.81778e-06</wgt>
  <wgt id="24">2.85314e-06</wgt>
  <wgt id="25">2.80777e-06</wgt>
  <wgt id="26">2.82603e-06</wgt>
  <wgt id="27">2.82388e-06</wgt>
  <wgt id="28">2.85193e-06</wgt>
  <wgt id="29">2.81523e-06</wgt>
  <wgt id="30">2.83579e-06</wgt>
  <wgt id="31">2.81031e-06</wgt>
  <wgt id="32">2.82817e-06</wgt>
  <wgt id="33">2.82212e-06</wgt>
  <wgt id="34">2.79307e-06</wgt>
  <wgt id="35">2.883e-06</wgt>
  <wgt id="36">2.83522e-06</wgt>
  <wgt id="37">2.81867e-06</wgt>
  <wgt id="38">2.81857e-06</wgt>
  <wgt id="39">2.8283e-06</wgt>
  <wgt id="40">2.82711e-06</wgt>
  <wgt id="41">2.82393e-06</wgt>
  <wgt id="42">2.84026e-06</wgt>
  <wgt id="43">2.79575e-06</wgt>
  <wgt id="44">2.83082e-06</wgt>
  <wgt id="45">2.82293e-06</wgt>
  <wgt id="46">2.82035e-06</wgt>
  <wgt id="47">2.82828e-06</wgt>
  <wgt id="48">2.80966e-06</wgt>
  <wgt id="49">2.83414e-06</wgt>
  <wgt id="50">2.81356e-06</wgt>
  <wgt id="51">2.82979e-06</wgt>
  <wgt id="52">2.83105e-06</wgt>
  <wgt id="53">2.82347e-06</wgt>
</rwgt>
</event>
<event>
 10      0 +2.8251000e-06 2.88800700e+02 7.54677100e-03 1.05449400e-01
        2 -1    0    0  501    0 +0.00000000000e+00 +0.00000000000e+00 +6.81192488580e+02  6.81192488580e+02  0.00000000000e+00 0.0000e+00 -1.0000e+00
        2 -1    0    0  502    0 +0.00000000000e+00 +0.00000000000e+00 -3.00814510470e+02  3.00814510470e+02  0.00000000000e+00 0.0000e+00 -1.0000e+00
       24  2    1    2    0    0 -4.54937934983e+01 +9.46772198510e+00 +3.24140459737e+02  3.35317591792e+02  7.21909046933e+01 0.0000e+00 0.0000e+00
       12  1    3    3    0    0 +1.86971069268e-01 +2.67629263970e+01 +4.86070213202e+01  5.54881222346e+01  0.00000000000e+00 0.0000e+00 -1.0000e+00
      -11  1    3    3    0    0 -4.56807645676e+01 -1.72952044118e+01 +2.75533438417e+02  2.79829469557e+02  0.00000000000e+00 0.0000e+00 1.0000e+00
       24  2    1    2    0    0 +1.94470776111e+01 +7.24713849586e+01 -2.17496550020e+02  2.43496343155e+02  7.97209470219e+01 0.0000e+00 0.0000e+00
        2  1    6    6  503    0 +9.70694358217e+00 +8.29096937252e+01 -2.12603585881e+02  2.28404305557e+02  0.00000000000e+00 0.0000e+00 -1.0000e+00
       -1  1    6    6    0  503 +9.74013402897e+00 -1.04383087666e+01 -4.89296413822e+00  1.50920375982e+01  0.00000000000e+00 0.0000e+00 1.0000e+00
        1  1    1    2  501    0 +1.04010579850e+02 -9.09846470894e+01 +2.91610110158e+02  3.22696239633e+02  0.00000000000e+00 0.0000e+00 -1.0000e+00
        1  1    1    2  502    0 -7.79638639628e+01 +9.04554014568e+00 -1.78760417653e+01  8.04968244699e+01  0.00000000000e+00 0.0000e+00 -1.0000e+00
#  0.1300000e+05  0.1300000e+05  0.1300000e+05  0.1300000e+05
<mgrwt>
<rscale>  2 0.22686103e+03</rscale>
<asrwt>0</asrwt>
<pdfrwt beam="1">  1        2 0.10479884e+00 0.28880068e+03</pdfrwt>
<pdfrwt beam="2">  1        2 0.46279155e-01 0.10996260e+03</pdfrwt>
<totfact> 0.81225508e+00</totfact>
</mgrwt>
<clustering>
<clus scale="   78.222">  3  6 -1 -1</clus>
<clus scale="  109.963">  2  4  1 -1</clus>
<clus scale="  127.369">  2  5  1 -1</clus>
<clus scale="  288.801">  1  3  2 -1</clus>
</clustering>
<rwgt>
  <wgt id="1">4.37451e-06</wgt>
  <wgt id="2">2.89338e-06</wgt>
  <wgt id="3">2.05946e-06</wgt>
  <wgt id="4">4.27128e-06</wgt>
  <wgt id="5">2.8251e-06</wgt>
  <wgt id="6">2.01086e-06</wgt>
  <wgt id="7">4.12605e-06</wgt>
  <wgt id="8">2.72904e-06</wgt>
  <wgt id="9">1.94248e-06</wgt>
  <wgt id="10">2.8251e-06</wgt>
  <wgt id="11">2.8251e-06</wgt>
  <wgt id="12">2.8251e-06</wgt>
  <wgt id="13">2.8251e-06</wgt>
  <wgt id="14">2.82816e-06</wgt>
  <wgt id="15">2.8225e-06</wgt>
  <wgt id="16">2.82676e-06</wgt>
  <wgt id="17">2.82302e-06</wgt>
  <wgt id="18">2.81352e-06</wgt>
  <wgt id="19">2.84222e-06</wgt>
  <wgt id="20">2.8125e-06</wgt>
  <wgt id="21">2.83351e-06</wgt>
  <wgt id="22">2.83072e-06</wgt>
  <wgt id="23">2.81706e-06</wgt>
  <wgt id="24">2.85736e-06</wgt>
  <wgt id="25">2.80511e-06</wgt>
  <wgt id="26">2.8233e-06</wgt>
  <wgt id="27">2.8275e-06</wgt>
  <wgt id="28">2.86064e-06</wgt>
  <wgt id="29">2.81211e-06</wgt>
  <wgt id="30">2.83021e-06</wgt>
  <wgt id="31">2.81828e-06</wgt>
  <wgt id="32">2.83066e-06</wgt>
  <wgt id="33">2.81975e-06</wgt>
  <wgt id="34">2.79467e-06</wgt>
  <wgt id="35">2.88061e-06</wgt>
  <wgt id="36">2.83565e-06</wgt>
  <wgt id="37">2.82056e-06</wgt>
  <wgt id="38">2.81682e-06</wgt>
  <wgt id="39">2.829e-06</wgt>
  <wgt id="40">2.8254e-06</wgt>
  <wgt id="41">2.82526e-06</wgt>
  <wgt id="42">2.84471e-06</wgt>
  <wgt id="43">2.78748e-06</wgt>
  <wgt id="44">2.83636e-06</wgt>
  <wgt id="45">2.82058e-06</wgt>
  <wgt id="46">2.82527e-06</wgt>
  <wgt id="47">2.82552e-06</wgt>
  <wgt id="48">2.79227e-06</wgt>
  <wgt id="49">2.84113e-06</wgt>
  <wgt id="50">2.81317e-06</wgt>
  <wgt id="51">2.8381e-06</wgt>
  <wgt id="52">2.82515e-06</wgt>
  <wgt id="53">2.8248e-06</wgt>
</rwgt>
</event>
<event>
 10      0 +2.8251000e-06 1.37746800e+02 7.54677100e-03 1.13837200e-01
        2 -1    0    0  502    0 +0.00000000000e+00 +0.00000000000e+00 +1.16428269730e+03  1.16428269730e+03  0.00000000000e+00 0.0000e+00 -1.0000e+00
        2 -1    0    0  501    0 +0.00000000000e+00 +0.00000000000e+00 -2.00417709800e+02  2.00417709800e+02  0.00000000000e+00 0.0000e+00 -1.0000e+00
       24  2    1    2    0    0 +9.91728756452e+01 +1.00109960384e+01 -8.47445745798e+01  1.52946154205e+02  7.92174466902e+01 0.0000e+00 0.0000e+00
       12  1    3    3    0    0 +1.01025590098e+02 -2.72447731954e-01 -9.47308521597e+01  1.38492521218e+02  0.00000000000e+00 0.0000e+00 -1.0000e+00
      -11  1    3    3    0    0 -1.85271445324e+00 +1.02834437704e+01 +9.98627757992e+00  1.44536329871e+01  0.00000000000e+00 0.0000e+00 1.0000e+00
       24  2    1    2    0    0 -5.56883462997e+01 +2.25270391771e+01 +5.79253149517e+02  5.88730950563e+02  8.63785940933e+01 0.0000e+00 0.0000e+00
       14  1    6    6    0    0 +1.18616179149e+01 -1.71908594046e+00 +1.20165481928e+01  1.69720554589e+01  0.00000000000e+00 0.0000e+00 -1.0000e+00
      -13  1    6    6    0    0 -6.75499642146e+01 +2.42461251176e+01 +5.67236601324e+02  5.71758895104e+02  0.00000000000e+00 0.0000e+00 1.0000e+00
        1  1    1    2  501    0 -1.39222801496e+01 +1.27028584626e+02 +4.39905608855e+02  4.58090641575e+02  0.00000000000e+00 0.0000e+00 -1.0000e+00
        1  1    1    2  502    0 -2.95622491959e+01 -1.59566619842e+02 +2.94508037078e+01  1.64932660757e+02  0.00000000000e+00 0.0000e+00 -1.0000e+00
#  0.1300000e+05  0.1300000e+05  0.1300000e+05  0.1300000e+05
<mgrwt>
<rscale>  2 0.13108674e+03</rscale>
<asrwt>0</asrwt>
<pdfrwt beam="1">  1        2 0.17912041e+00 0.10281692e+03</pdfrwt>
<pdfrwt beam="2">  1        2 0.30833494e-01 0.12535919e+03</pdfrwt>
<totfact> 0.76110760e+00</totfact>
</mgrwt>
<clustering>
<clus scale="  102.817">  1  4  2 -1</clus>
<clus scale="  125.359">  2  3  1 -1</clus>
<clus scale="  151.359">  2  6  1 -1</clus>
<clus scale="  151.359">  1  3  2 -1</clus>
</clustering>
<rwgt>
  <wgt id="1">4.68299e-06</wgt>
  <wgt id="2">2.97918e-06</wgt>
  <wgt id="3">2.06687e-06</wgt>
  <wgt id="4">4.44078e-06</wgt>
  <wgt id="5">2.8251e-06</wgt>
  <wgt id="6">1.95997e-06</wgt>
  <wgt id="7">4.18584e-06</wgt>
  <wgt id="8">2.66291e-06</wgt>
  <wgt id="9">1.84745e-06</wgt>
  <wgt id="10">2.8251e-06</wgt>
  <wgt id="11">2.8251e-06</wgt>
  <wgt id="12">2.8251e-06</wgt>
  <wgt id="13">2.8251e-06</wgt>
  <wgt id="14">2.82845e-06</wgt>
  <wgt id="15">2.82224e-06</wgt>
  <wgt id="16">2.82415e-06</wgt>
  <wgt id="17">2.82595e-06</wgt>
  <wgt id="18">2.81361e-06</wgt>
  <wgt id="19">2.842e-06</wgt>
  <wgt id="20">2.81692e-06</wgt>
  <wgt id="21">2.83056e-06</wgt>
  <wgt id="22">2.83101e-06</wgt>
  <wgt id="23">2.81664e-06</wgt>
  <wgt id="24">2.8581e-06</wgt>
  <wgt id="25">2.80465e-06</wgt>
  <wgt id="26">2.82459e-06</wgt>
  <wgt id="27">2.82578e-06</wgt>
  <wgt id="28">2.85926e-06</wgt>
  <wgt id="29">2.81264e-06</wgt>
  <wgt id="30">2.83281e-06</wgt>
  <wgt id="31">2.81488e-06</wgt>
  <wgt id="32">2.82958e-06</wgt>
  <wgt id="33">2.82079e-06</wgt>
  <wgt id="34">2.79273e-06</wgt>
  <wgt id="35">2.88393e-06</wgt>
  <wgt id="36">2.8346e-06</wgt>
  <wgt id="37">2.8197e-06</wgt>
  <wgt id="38">2.81705e-06</wgt>
  <wgt id="39">2.82899e-06</wgt>
  <wgt id="40">2.82621e-06</wgt>
  <wgt id="41">2.82441e-06</wgt>
  <wgt id="42">2.84441e-06</wgt>
  <wgt id="43">2.78874e-06</wgt>
  <wgt id="44">2.83303e-06</wgt>
  <wgt id="45">2.82202e-06</wgt>
  <wgt id="46">2.82232e-06</wgt>
  <wgt id="47">2.82718e-06</wgt>
  <wgt id="48">2.80166e-06</wgt>
  <wgt id="49">2.83775e-06</wgt>
  <wgt id="50">2.81452e-06</wgt>
  <wgt id="51">2.83383e-06</wgt>
  <wgt id="52">2.82929e-06</wgt>
  <wgt id="53">2.82381e-06</wgt>
</rwgt>
</event>
<event>
 10      0 +2.8251000e-06 1.87451400e+02 7.54677100e-03 1.09407600e-01
        2 -1    0    0  502    0 +0.00000000000e+00 +0.00000000000e+00 +1.57648273800e+03  1.57648273800e+03  0.00000000000e+00 0.0000e+00 -1.0000e+00
        4 -1    0    0  501    0 +0.00000000000e+00 +0.00000000000e+00 -3.21488554340e+02  3.21488554340e+02  0.00000000000e+00 0.0000e+00 -1.0000e+00
       24  2    1    2    0    0 -6.69750099109e+00 -3.45393062388e+01 +7.51975916304e+00  8.97333187495e+01  8.22052402281e+01 0.0000e+00 0.0000e+00
        2  1    3    3  503    0 -3.66581610258e+01 -4.21518948451e+01 -5.61919011327e+00  5.61442633432e+01  0.00000000000e+00 0.0000e+00 -1.0000e+00
       -1  1    3    3    0  503 +2.99606600347e+01 +7.61258860632e+00 +1.31389492763e+01  3.35890554063e+01  0.00000000000e+00 0.0000e+00 1.0000e+00
       24  2    1    2    0    0 -8.55999065887e+01 -1.51162379644e+01 +5.48908192204e+01  1.28775779553e+02  7.75522708030e+01 0.0000e+00 0.0000e+00
        2  1    6    6  504    0 -4.91614357678e+01 +2.86758204318e+01 +1.38835069075e+01  5.85824308837e+01  0.00000000000e+00 0.0000e+00 -1.0000e+00
       -1  1    6    6    0  504 -3.64384708208e+01 -4.37920583961e+01 +4.10073123129e+01  7.01933486697e+01  0.00000000000e+00 0.0000e+00 1.0000e+00
        1  1    1    2  501    0 +2.64045391842e+02 -1.20330158536e+02 -1.42087954346e+02  3.23091786922e+02  0.00000000000e+00 0.0000e+00 -1.0000e+00
        3  1    1    2  502    0 -1.71747984262e+02 +1.69985702739e+02 +1.33467155962e+03  1.35637040712e+03  0.00000000000e+00 0.0000e+00 -1.0000e+00
#  0.1300000e+05  0.1300000e+05  0.1300000e+05  0.1300000e+05
<mgrwt>
<rscale>  2 0.17326346e+03</rscale>
<asrwt>0</asrwt>
<pdfrwt beam="1">  1        2 0.24253581e+00 0.12008032e+03</pdfrwt>
<pdfrwt beam="2">  1        4 0.49459778e-01 0.87648689e+02</pdfrwt>
<totfact> 0.36520967e-01</totfact>
</mgrwt>
<clustering>
<clus scale="   87.649">  2  3  1 -1</clus>
<clus scale="  120.080">  1  4  2 -1</clus>
<clus scale="  292.621">  2  6  1 -1</clus>
<clus scale="  292.621">  1  3  2 -1</clus>
</clustering>
<rwgt>
  <wgt id="1">4.3449e-06</wgt>
  <wgt id="2">2.822e-06</wgt>
  <wgt id="3">1.98443e-06</wgt>
  <wgt id="4">4.34967e-06</wgt>
  <wgt id="5">2.8251e-06</wgt>
  <wgt id="6">1.98661e-06</wgt>
  <wgt id="7">4.13902e-06</wgt>
  <wgt id="8">2.68828e-06</wgt>
  <wgt id="9">1.8904e-06</wgt>
  <wgt id="10">2.8251e-06</wgt>
  <wgt id="11">2.8251e-06</wgt>
  <wgt id="12">2.8251e-06</wgt>
  <wgt id="13">2.8251e-06</wgt>
  <wgt id="14">2.83368e-06</wgt>
  <wgt id="15">2.81815e-06</wgt>
  <wgt id="16">2.816e-06</wgt>
  <wgt id="17">2.8353e-06</wgt>
  <wgt id="18">2.81936e-06</wgt>
  <wgt id="19">2.83367e-06</wgt>
  <wgt id="20">2.8245e-06</wgt>
  <wgt id="21">2.8255e-06</wgt>
  <wgt id="22">2.826e-06</wgt>
  <wgt id="23">2.82392e-06</wgt>
  <wgt id="24">2.82779e-06</wgt>
  <wgt id="25">2.82331e-06</wgt>
  <wgt id="26">2.83047e-06</wgt>
  <wgt id="27">2.81767e-06</wgt>
  <wgt id="28">2.84517e-06</wgt>
  <wgt id="29">2.81783e-06</wgt>
  <wgt id="30">2.81966e-06</wgt>
  <wgt id="31">2.83072e-06</wgt>
  <wgt id="32">2.82388e-06</wgt>
  <wgt id="33">2.82624e-06</wgt>
  <wgt id="34">2.82397e-06</wgt>
  <wgt id="35">2.8278e-06</wgt>
  <wgt id="36">2.82024e-06</wgt>
  <wgt id="37">2.82889e-06</wgt>
  <wgt id="38">2.81248e-06</wgt>
  <wgt id="39">2.83141e-06</wgt>
  <wgt id="40">2.82235e-06</wgt>
  <wgt id="41">2.82942e-06</wgt>
  <wgt id="42">2.82075e-06</wgt>
  <wgt id="43">2.83516e-06</wgt>
  <wgt id="44">2.82417e-06</wgt>
  <wgt id="45">2.82572e-06</wgt>
  <wgt id="46">2.82809e-06</wgt>
  <wgt id="47">2.82333e-06</wgt>
  <wgt id="48">2.83102e-06</wgt>
  <wgt id="49">2.82535e-06</wgt>
  <wgt id="50">2.86267e-06</wgt>
  <wgt id="51">2.78665e-06</wgt>
  <wgt id="52">2.83537e-06</wgt>
  <wgt id="53">2.82267e-06</wgt>
</rwgt>
</event>
<event>
 10      0 +2.8251000e-06 3.92344700e+02 7.54677100e-03 1.00605800e-01
       -1 -1    0    0    0  501 +0.00000000000e+00 +0.00000000000e+00 +4.40136627480e+02  4.40136627480e+02  0.00000000000e+00 0.0000e+00 1.0000e+00
        2 -1    0    0  502    0 +0.00000000000e+00 +0.00000000000e+00 -3.08913263620e+02  3.08913263620e+02  0.00000000000e+00 0.0000e+00 -1.0000e+00
       24  2    1    2    0    0 -2.61129235810e+01 -1.23670922601e+01 -7.64582741895e+01  1.14136242186e+02  7.96641973492e+01 0.0000e+00 0.0000e+00
        4  1    3    3  503    0 -3.46605019597e+01 +1.12133736620e+01 -8.08450765158e+01  8.86736519031e+01  0.00000000000e+00 0.0000e+00 -1.0000e+00
       -3  1    3    3    0  503 +8.54757837871e+00 -2.35804659222e+01 +4.38680232626e+00  2.54625902825e+01  0.00000000000e+00 0.0000e+00 1.0000e+00
       24  2    1    2    0    0 +1.36788796757e+02 -9.51025689653e+01 +2.75142178240e+02  3.31296190268e+02  7.93616651620e+01 0.0000e+00 0.0000e+00
       14  1    6    6    0    0 +4.97617156897e+01 -6.01377393170e+00 +1.33975652642e+02  1.43044990566e+02  0.00000000000e+00 0.0000e+00 -1.0000e+00
      -13  1    6    6    0    0 +8.70270810677e+01 -8.90887950336e+01 +1.41166525598e+02  1.88251199702e+02  0.00000000000e+00 0.0000e+00 1.0000e+00
        1  1    1    2  502    0 -1.66687888698e+02 +6.82857897788e+01 -1.20820484258e+02  2.16899494561e+02  0.00000000000e+00 0.0000e+00 -1.0000e+00
       -2  1    1    2    0  501 +5.60120155215e+01 +3.91838714466e+01 +5.33599440673e+01  8.67179640858e+01  0.00000000000e+00 0.0000e+00 1.0000e+00
#  0.1300000e+05  0.1300000e+05  0.1804088e+03  0.1300000e+05
<mgrwt>
<rscale>  2 0.32493298e+03</rscale>
<asrwt>0</asrwt>
<pdfrwt beam="1">  1        2 0.47525117e-01 0.39234472e+03</pdfrwt>
<pdfrwt beam="2">  1       -1 0.67713327e-01 0.18457452e+03</pdfrwt>
<totfact> 0.35107744e+00</totfact>
</mgrwt>
<clustering>
<clus scale="   68.168">  3  6 -1 -1</clus>
<clus scale="  180.409">  3  5 -1 -1</clus>
<clus scale="  184.575">  1  4  2 -1</clus>
<clus scale="  392.345">  2  3  1 -1</clus>
</clustering>
<rwgt>
  <wgt id="1">4.33201e-06</wgt>
  <wgt id="2">2.92893e-06</wgt>
  <wgt id="3">2.11605e-06</wgt>
  <wgt id="4">4.17843e-06</wgt>
  <wgt id="5">2.8251e-06</wgt>
  <wgt id="6">2.04104e-06</wgt>
  <wgt id="7">3.99687e-06</wgt>
  <wgt id="8">2.70234e-06</wgt>
  <wgt id="9">1.95235e-06</wgt>
  <wgt id="10">2.8251e-06</wgt>
  <wgt id="11">2.8251e-06</wgt>
  <wgt id="12">2.8251e-06</wgt>
  <wgt id="13">2.8251e-06</wgt>
  <wgt id="14">2.83012e-06</wgt>
  <wgt id="15">2.82108e-06</wgt>
  <wgt id="16">2.8463e-06</wgt>
  <wgt id="17">2.80134e-06</wgt>
  <wgt id="18">2.81148e-06</wgt>
  <wgt id="19">2.84551e-06</wgt>
  <wgt id="20">2.84619e-06</wgt>
  <wgt id="21">2.81096e-06</wgt>
  <wgt id="22">2.8356e-06</wgt>
  <wgt id="23">2.81029e-06</wgt>
  <wgt id="24">2.88033e-06</wgt>
  <wgt id="25">2.79138e-06</wgt>
  <wgt id="26">2.82487e-06</wgt>
  <wgt id="27">2.82552e-06</wgt>
  <wgt id="28">2.84625e-06</wgt>
  <wgt id="29">2.81747e-06</wgt>
  <wgt id="30">2.81966e-06</wgt>
  <wgt id="31">2.83128e-06</wgt>
  <wgt id="32">2.84362e-06</wgt>
  <wgt id="33">2.80721e-06</wgt>
  <wgt id="34">2.81663e-06</wgt>
  <wgt id="35">2.84005e-06</wgt>
  <wgt id="36">2.82253e-06</wgt>
  <wgt id="37">2.82346e-06</wgt>
  <wgt id="38">2.86036e-06</wgt>
  <wgt id="39">2.80879e-06</wgt>
  <wgt id="40">2.81511e-06</wgt>
  <wgt id="41">2.83587e-06</wgt>
  <wgt id="42">2.83899e-06</wgt>
  <wgt id="43">2.78553e-06</wgt>
  <wgt id="44">2.83897e-06</wgt>
  <wgt id="45">2.81987e-06</wgt>
  <wgt id="46">2.82645e-06</wgt>
  <wgt id="47">2.82584e-06</wgt>
  <wgt id="48">2.80295e-06</wgt>
  <wgt id="49">2.836e-06</wgt>
  <wgt id="50">2.82713e-06</wgt>
  <wgt id="51">2.82696e-06</wgt>
  <wgt id="52">2.81447e-06</wgt>
  <wgt id="53">2.82783e-06</wgt>
</rwgt>
</event>
<event>
 10      0 +2.8251000e-06 1.10336000e+02 7.54677100e-03 1.17296300e-01
        2 -1    0    0  502    0 +0.00000000000e+00 +0.00000000000e+00 +4.27694045310e+03  4.27694045310e+03  0.00000000000e+00 0.0000e+00 -1.0000e+00
        4 -1    0    0  501    0 +0.00000000000e+00 +0.00000000000e+00 -2.24618697570e+01  2.24618697570e+01  0.00000000000e+00 0.0000e+00 -1.0000e+00
       24  2    1    2    0    0 -1.79062869278e+01 -4.39018597316e+01 +3.44267761942e+02  3.56358900892e+02  7.88883130315e+01 0.0000e+00 0.0000e+00
       12  1    3    3    0    0 -1.36768380485e+01 -5.99675341938e+01 +3.25645400840e+02  3.31403210824e+02  0.00000000000e+00 0.0000e+00 -1.0000e+00
      -11  1    3    3    0    0 -4.22944887932e+00 +1.60656744622e+01 +1.86223611017e+01  2.49556900676e+01  0.00000000000e+00 0.0000e+00 1.0000e+00
       24  2    1    2    0    0 -7.33144985678e+00 -1.80565258468e+01 +6.64805768090e+02  6.69953788346e+02  8.05703478360e+01 0.0000e+00 0.0000e+00
        4  1    6    6  503    0 -3.06462631436e+01 -1.10395786019e+01 +5.97365583852e+02  5.98253045552e+02  0.00000000000e+00 0.0000e+00 -1.0000e+00
       -3  1    6    6    0  503 +2.33148132868e+01 -7.01694724496e+00 +6.74401842377e+01  7.17007427943e+01  0.00000000000e+00 0.0000e+00 1.0000e+00
        1  1    1    2  501    0 -1.02252076580e+02 +9.30342145254e+01 +3.74720014368e+02  3.99406987177e+02  0.00000000000e+00 0.0000e+00 -1.0000e+00
        3  1    1    2  502    0 +1.27489813365e+02 -3.10758289470e+01 +2.87068503894e+03  2.87368264644e+03  0.00000000000e+00 0.0000e+00 -1.0000e+00
#  0.1300000e+05  0.1300000e+05  0.1300000e+05  0.1300000e+05
<mgrwt>
<rscale>  2 0.10707276e+03</rscale>
<asrwt>0</asrwt>
<pdfrwt beam="1">  1        2 0.65799084e+00 0.82794567e+02</pdfrwt>
<pdfrwt beam="2">  1        4 0.34556723e-02 0.93358557e+02</pdfrwt>
<totfact> 0.10186356e+00</totfact>
</mgrwt>
<clustering>
<clus scale="   82.795">  1  4  2 -1</clus>
<clus scale="   93.359">  2  3  1 -1</clus>
<clus scale="  130.401">  2  6  1 -1</clus>
<clus scale="  130.401">  1  3  2 -1</clus>
</clustering>
<rwgt>
  <wgt id="1">4.8709e-06</wgt>
  <wgt id="2">3.04941e-06</wgt>
  <wgt id="3">2.09317e-06</wgt>
  <wgt id="4">4.5126e-06</wgt>
  <wgt id="5">2.8251e-06</wgt>
  <wgt id="6">1.9392e-06</wgt>
  <wgt id="7">4.02858e-06</wgt>
  <wgt id="8">2.52208e-06</wgt>
  <wgt id="9">1.7312e-06</wgt>
  <wgt id="10">2.8251e-06</wgt>
  <wgt id="11">2.8251e-06</wgt>
  <wgt id="12">2.8251e-06</wgt>
  <wgt id="13">2.8251e-06</wgt>
  <wgt id="14">2.82564e-06</wgt>
  <wgt id="15">2.82462e-06</wgt>
  <wgt id="16">2.80868e-06</wgt>
  <wgt id="17">2.84341e-06</wgt>
  <wgt id="18">2.81703e-06</wgt>
  <wgt id="19">2.83694e-06</wgt>
  <wgt id="20">2.82278e-06</wgt>
  <wgt id="21">2.82653e-06</wgt>
  <wgt id="22">2.82754e-06</wgt>
  <wgt id="23">2.82149e-06</wgt>
  <wgt id="24">2.8362e-06</wgt>
  <wgt id="25">2.818e-06</wgt>
  <wgt id="26">2.8313e-06</wgt>
  <wgt id="27">2.81648e-06</wgt>
  <wgt id="28">2.78014e-06</wgt>
  <wgt id="29">2.84096e-06</wgt>
  <wgt id="30">2.82132e-06</wgt>
  <wgt id="31">2.8189e-06</wgt>
  <wgt id="32">2.80149e-06</wgt>
  <wgt id="33">2.84768e-06</wgt>
  <wgt id="34">2.79328e-06</wgt>
  <wgt id="35">2.87856e-06</wgt>
  <wgt id="36">2.8637e-06</wgt>
  <wgt id="37">2.80093e-06</wgt>
  <wgt id="38">2.8328e-06</wgt>
  <wgt id="39">2.82106e-06</wgt>
  <wgt id="40">2.86266e-06</wgt>
  <wgt id="41">2.79226e-06</wgt>
  <wgt id="42">2.83028e-06</wgt>
  <wgt id="43">2.82062e-06</wgt>
  <wgt id="44">2.83346e-06</wgt>
  <wgt id="45">2.82171e-06</wgt>
  <wgt id="46">2.82713e-06</wgt>
  <wgt id="47">2.82398e-06</wgt>
  <wgt id="48">2.80961e-06</wgt>
  <wgt id="49">2.84177e-06</wgt>
  <wgt id="50">2.80437e-06</wgt>
  <wgt id="51">2.8359e-06</wgt>
  <wgt id="52">2.81489e-06</wgt>
  <wgt id="53">2.82854e-06</wgt>
</rwgt>
</event>
<event>
 12      0 +2.8251000e-06 3.68146700e+02 7.54677100e-03 1.01752500e-01
        4 -1    0    0  501    0 +0.00000000000e+00 +0.00000000000e+00 +3.49855883280e+02  3.49855883280e+02  0.00000000000e+00 0.0000e+00 -1.0000e+00
        2 -1    0    0  502    0 +0.00000000000e+00 +0.00000000000e+00 -1.35169114130e+03  1.35169114130e+03  0.00000000000e+00 0.0000e+00 -1.0000e+00
       24  2    1    2    0    0 +1.09731500262e+02 -3.58897684221e+01 -1.44648349292e+02  2.01807834611e+02  8.04622863858e+01 0.0000e+00 0.0000e+00
        4  1    3    3  504    0 +7.47690043786e+01 -2.60102184054e+01 -1.45256366081e+02  1.65427770838e+02  0.00000000000e+00 0.0000e+00 -1.0000e+00
       -3  1    3    3    0  504 +3.49624958834e+01 -9.87955001674e+00 +6.08016788933e-01  3.63800637736e+01  0.00000000000e+00 0.0000e+00 1.0000e+00
       24  2    1    2    0    0 -3.92544385779e+01 +3.98023236901e+00 -3.45005376315e+00  9.04414639165e+01  8.13080704887e+01 0.0000e+00 0.0000e+00
       16  1    6    6    0    0 -4.20807543456e+01 +3.73636043976e+01 -7.18376459157e+00  5.67312549974e+01  0.00000000000e+00 0.0000e+00 -1.0000e+00
      -15  1    6    6    0    0 +2.82631576765e+00 -3.33833720286e+01 +3.73371082842e+00  3.37102089191e+01  1.77700000000e+00 0.0000e+00 1.0000e+00
        1  1    1    2  501    0 +3.42481641172e+02 -1.04598024133e+02 -5.28129767313e+02  6.38087354768e+02  0.00000000000e+00 0.0000e+00 -1.0000e+00
        3  1    1    2  502    0 -2.29784710792e+02 +1.45693739192e+02 -1.72496590896e+02  3.22153306400e+02  0.00000000000e+00 0.0000e+00 -1.0000e+00
        3  1    1    2  503    0 -2.28430769872e+02 -1.00217435322e+02 +1.79237300901e+01  2.50090805643e+02  0.00000000000e+00 0.0000e+00 -1.0000e+00
       -3  1    1    2    0  503 +4.52567778083e+01 +9.10312563166e+01 -1.71034226845e+02  1.98966259242e+02  0.00000000000e+00 0.0000e+00 1.0000e+00
#  0.1300000e+05  0.1300000e+05  0.1300000e+05  0.1643330e+03  0.1300000e+05  0.1643330e+03
<mgrwt>
<rscale>  3 0.29751278e+03</rscale>
<asrwt>  1 0.16433297e+03</asrwt>
<pdfrwt beam="1">  1        2 0.20795248e+00 0.14070999e+03</pdfrwt>
<pdfrwt beam="2">  1        4 0.53823982e-01 0.32990279e+03</pdfrwt>
<totfact> 0.40190809e-03</totfact>
</mgrwt>
<clustering>
<clus scale="  140.710">  2  3  1 -1</clus>
<clus scale="  164.333">  6  8 -1 -1</clus>
<clus scale="  242.317">  4  7 -1 -1</clus>
<clus scale="  329.903">  1  4  2 -1</clus>
<clus scale="  324.515">  1  5  2 -1</clus>
<clus scale="  410.824">  2  3  1 -1</clus>
</clustering>
<rwgt>
  <wgt id="1">5.38201e-06</wgt>
  <wgt id="2">2.9689e-06</wgt>
  <wgt id="3">1.81348e-06</wgt>
  <wgt id="4">5.12134e-06</wgt>
  <wgt id="5">2.8251e-06</wgt>
  <wgt id="6">1.72564e-06</wgt>
  <wgt id="7">4.79085e-06</wgt>
  <wgt id="8">2.64279e-06</wgt>
  <wgt id="9">1.61428e-06</wgt>
  <wgt id="10">3.51217e-06</wgt>
  <wgt id="11">2.8251e-06</wgt>
  <wgt id="12">2.3661e-06</wgt>
  <wgt id="13">2.8251e-06</wgt>
  <wgt id="14">2.83351e-06</wgt>
  <wgt id="15">2.81809e-06</wgt>
  <wgt id="16">2.81698e-06</wgt>
  <wgt id="17">2.83403e-06</wgt>
  <wgt id="18">2.81927e-06</wgt>
  <wgt id="19">2.83357e-06</wgt>
  <wgt id="20">2.82319e-06</wgt>
  <wgt id="21">2.82624e-06</wgt>
  <wgt id="22">2.82584e-06</wgt>
  <wgt id="23">2.82382e-06</wgt>
  <wgt id="24">2.82795e-06</wgt>
  <wgt id="25">2.82305e-06</wgt>
  <wgt id="26">2.82962e-06</wgt>
  <wgt id="27">2.81879e-06</wgt>
  <wgt id="28">2.84691e-06</wgt>
  <wgt id="29">2.81706e-06</wgt>
  <wgt id="30">2.81399e-06</wgt>
  <wgt id="31">2.83791e-06</wgt>
  <wgt id="32">2.82566e-06</wgt>
  <wgt id="33">2.82438e-06</wgt>
  <wgt id="34">2.82992e-06</wgt>
  <wgt id="35">2.8174e-06</wgt>
  <wgt id="36">2.81855e-06</wgt>
  <wgt id="37">2.82962e-06</wgt>
  <wgt id="38">2.80877e-06</wgt>
  <wgt id="39">2.83308e-06</wgt>
  <wgt id="40">2.82017e-06</wgt>
  <wgt id="41">2.83141e-06</wgt>
  <wgt id="42">2.8213e-06</wgt>
  <wgt id="43">2.83361e-06</wgt>
  <wgt id="44">2.8235e-06</wgt>
  <wgt id="45">2.82586e-06</wgt>
  <wgt id="46">2.82829e-06</wgt>
  <wgt id="47">2.82306e-06</wgt>
  <wgt id="48">2.83049e-06</wgt>
  <wgt id="49">2.82485e-06</wgt>
  <wgt id="50">2.85858e-06</wgt>
  <wgt id="51">2.79567e-06</wgt>
  <wgt id="52">2.83562e-06</wgt>
  <wgt id="53">2.8224e-06</wgt>
</rwgt>
</event>
<event>
 10      0 +2.8251000e-06 2.62602000e+02 7.54677100e-03 1.05839700e-01
        2 -1    0    0  501    0 +0.00000000000e+00 +0.00000000000e+00 +2.64996082570e+02  2.64996082570e+02  0.00000000000e+00 0.0000e+00 -1.0000e+00
       -3 -1    0    0    0  501 +0.00000000000e+00 +0.00000000000e+00 -3.93447967270e+02  3.93447967270e+02  0.00000000000e+00 0.0000e+00 1.0000e+00
       24  2    1    2    0    0 -1.57602087526e+02 -1.03908714770e+01 +5.35714789953e+01  1.84801794412e+02  7.95952991931e+01 0.0000e+00 0.0000e+00
        2  1    3    3  503    0 -1.57152544997e+02 -5.35546151115e+00 +2.93056374574e+01  1.59951316824e+02  0.00000000000e+00 0.0000e+00 -1.0000e+00
       -1  1    3    3    0  503 -4.49542529574e-01 -5.03540996582e+00 +2.42658415379e+01  2.48504775885e+01  0.00000000000e+00 0.0000e+00 1.0000e+00
       24  2    1    2    0    0 -4.98645366172e+01 +9.04356884607e+01 +1.11986592997e+01  1.31042017744e+02  7.98843832355e+01 0.0000e+00 0.0000e+00
       16  1    6    6    0    0 -2.64052858215e+01 +1.97893629244e+01 +3.94416943528e+01  5.14247533557e+01  0.00000000000e+00 0.0000e+00 -1.0000e+00
      -15  1    6    6    0    0 -2.34592507957e+01 +7.06463255363e+01 -2.82430350532e+01  7.96172643884e+01  1.77700000000e+00 0.0000e+00 1.0000e+00
        1  1    1    2  502    0 +3.94114811653e+01 +5.06700752450e+01 -1.74776977467e+01  6.65296271709e+01  0.00000000000e+00 0.0000e+00 -1.0000e+00
       -4  1    1    2    0  502 +1.68055142978e+02 -1.30714892229e+02 -1.75744325248e+02  2.76070610513e+02  0.00000000000e+00 0.0000e+00 1.0000e+00
#  0.1300000e+05  0.1300000e+05  0.1300000e+05  0.1300000e+05
<mgrwt>
<rscale>  2 0.22070587e+03</rscale>
<asrwt>0</asrwt>
<pdfrwt beam="1">  1        2 0.40768628e-01 0.26260199e+03</pdfrwt>
<pdfrwt beam="2">  1       -3 0.60530457e-01 0.13102722e+03</pdfrwt>
<totfact> 0.31818366e+00</totfact>
</mgrwt>
<clustering>
<clus scale="   63.756">  3  5 -1 -1</clus>
<clus scale="  131.027">  2  4  1 -1</clus>
<clus scale="  150.990">  2  6  1 -1</clus>
<clus scale="  262.602">  1  3  2 -1</clus>
</clustering>
<rwgt>
  <wgt id="1">4.1641e-06</wgt>
  <wgt id="2">2.74923e-06</wgt>
  <wgt id="3">1.95452e-06</wgt>
  <wgt id="4">4.27902e-06</wgt>
  <wgt id="5">2.8251e-06</wgt>
  <wgt id="6">2.00845e-06</wgt>
  <wgt id="7">4.26767e-06</wgt>
  <wgt id="8">2.81761e-06</wgt>
  <wgt id="9">2.00313e-06</wgt>
  <wgt id="10">2.8251e-06</wgt>
  <wgt id="11">2.8251e-06</wgt>
  <wgt id="12">2.8251e-06</wgt>
  <wgt id="13">2.8251e-06</wgt>
  <wgt id="14">2.83375e-06</wgt>
  <wgt id="15">2.81808e-06</wgt>
  <wgt id="16">2.7992e-06</wgt>
  <wgt id="17">2.85402e-06</wgt>
  <wgt id="18">2.8559e-06</wgt>
  <wgt id="19">2.77922e-06</wgt>
  <wgt id="20">2.79339e-06</wgt>
  <wgt id="21">2.84668e-06</wgt>
  <wgt id="22">2.86451e-06</wgt>
  <wgt id="23">2.76921e-06</wgt>
  <wgt id="24">2.80411e-06</wgt>
  <wgt id="25">2.83795e-06</wgt>
  <wgt id="26">2.82142e-06</wgt>
  <wgt id="27">2.83007e-06</wgt>
  <wgt id="28">2.83474e-06</wgt>
  <wgt id="29">2.82164e-06</wgt>
  <wgt id="30">2.82777e-06</wgt>
  <wgt id="31">2.82067e-06</wgt>
  <wgt id="32">2.8224e-06</wgt>
  <wgt id="33">2.8278e-06</wgt>
  <wgt id="34">2.80393e-06</wgt>
  <wgt id="35">2.86612e-06</wgt>
  <wgt id="36">2.82048e-06</wgt>
  <wgt id="37">2.82871e-06</wgt>
  <wgt id="38">2.79686e-06</wgt>
  <wgt id="39">2.83839e-06</wgt>
  <wgt id="40">2.83034e-06</wgt>
  <wgt id="41">2.82155e-06</wgt>
  <wgt id="42">2.83148e-06</wgt>
  <wgt id="43">2.8067e-06</wgt>
  <wgt id="44">2.81039e-06</wgt>
  <wgt id="45">2.83029e-06</wgt>
  <wgt id="46">2.84243e-06</wgt>
  <wgt id="47">2.80876e-06</wgt>
  <wgt id="48">2.79364e-06</wgt>
  <wgt id="49">2.84093e-06</wgt>
  <wgt id="50">2.8372e-06</wgt>
  <wgt id="51">2.81446e-06</wgt>
  <wgt id="52">2.79837e-06</wgt>
  <wgt id="53">2.87947e-06</wgt>
</rwgt>
</event>
<event>
 11      0 +2.8251000e-06 2.51157900e+02 7.54677100e-03 1.05403300e-01
        2 -1    0    0  501    0 +0.00000000000e+00 +0.00000000000e+00 +1.30231476830e+03  1.30231476830e+03  0.00000000000e+00 0.0000e+00 -1.0000e+00
        2 -1    0    0  503    0 +0.00000000000e+00 +0.00000000000e+00 -6.61349704740e+02  6.61349704740e+02  0.00000000000e+00 0.0000e+00 -1.0000e+00
       24  2    1    2    0    0 -3.03604848319e+01 +1.63150917184e+02 +8.05857881152e+02  8.26703630518e+02  8.05728693702e+01 0.0000e+00 0.0000e+00
        2  1    3    3  504    0 -2.25265015513e+01 +1.67587731104e+02 +7.94050005599e+02  8.11854976138e+02  0.00000000000e+00 0.0000e+00 -1.0000e+00
       -1  1    3    3    0  504 -7.83398328067e+00 -4.43681391961e+00 +1.18078755536e+01  1.48486543798e+01  0.00000000000e+00 0.0000e+00 1.0000e+00
       24  2    1    2    0    0 +5.39275885484e+01 -7.79879377099e+01 -3.36290619785e+02  3.57224619062e+02  7.43488014277e+01 0.0000e+00 0.0000e+00
        4  1    6    6  505    0 +5.02142310594e+01 -4.88213778261e+01 -1.19981831466e+02  1.38926728226e+02  0.00000000000e+00 0.0000e+00 -1.0000e+00
       -3  1    6    6    0  505 +3.71335748892e+00 -2.91665598838e+01 -2.16308788319e+02  2.18297890835e+02  0.00000000000e+00 0.0000e+00 1.0000e+00
       21  1    1    2  503  502 +7.51450762827e+01 +7.09374456366e+01 +5.36052609567e+01  1.16414894602e+02  0.00000000000e+00 0.0000e+00 -1.0000e+00
        1  1    1    2  501    0 -2.08648979117e+02 -2.68371102546e+02 -1.34925789923e+02  3.65735442574e+02  0.00000000000e+00 0.0000e+00 -1.0000e+00
        1  1    1    2  502    0 +1.09936799118e+02 +1.12270677435e+02 +2.52718331159e+02  2.97585886284e+02  0.00000000000e+00 0.0000e+00 -1.0000e+00
#  0.1300000e+05  0.1300000e+05  0.8004186e+02  0.1300000e+05  0.1300000e+05
<mgrwt>
<rscale>  2 0.22760188e+03</rscale>
<asrwt>  1 0.80041859e+02</asrwt>
<pdfrwt beam="1">  1        2 0.20035612e+00 0.18189491e+03</pdfrwt>
<pdfrwt beam="2">  1        2 0.10174611e+00 0.12266945e+03</pdfrwt>
<totfact> 0.17977913e-01</totfact>
</mgrwt>
<clustering>
<clus scale="   80.042">  5  7 -1 -1</clus>
<clus scale="  122.669">  2  4  1 -1</clus>
<clus scale="  181.895">  1  3  2 -1</clus>
<clus scale="  332.453">  2  6  1 -1</clus>
<clus scale="  346.795">  1  3  2 -1</clus>
</clustering>
<rwgt>
  <wgt id="1">4.89205e-06</wgt>
  <wgt id="2">3.23638e-06</wgt>
  <wgt id="3">2.30393e-06</wgt>
  <wgt id="4">4.27037e-06</wgt>
  <wgt id="5">2.8251e-06</wgt>
  <wgt id="6">2.01114e-06</wgt>
  <wgt id="7">3.77767e-06</wgt>
  <wgt id="8">2.49915e-06</wgt>
  <wgt id="9">1.7791e-06</wgt>
  <wgt id="10">3.6172e-06</wgt>
  <wgt id="11">2.8251e-06</wgt>
  <wgt id="12">2.322e-06</wgt>
  <wgt id="13">2.8251e-06</wgt>
  <wgt id="14">2.82796e-06</wgt>
  <wgt id="15">2.82272e-06</wgt>
  <wgt id="16">2.81431e-06</wgt>
  <wgt id="17">2.8371e-06</wgt>
  <wgt id="18">2.81169e-06</wgt>
  <wgt id="19">2.84503e-06</wgt>
  <wgt id="20">2.81367e-06</wgt>
  <wgt id="21">2.83279e-06</wgt>
  <wgt id="22">2.83255e-06</wgt>
  <wgt id="23">2.81451e-06</wgt>
  <wgt id="24">2.86652e-06</wgt>
  <wgt id="25">2.79959e-06</wgt>
  <wgt id="26">2.82455e-06</wgt>
  <wgt id="27">2.82585e-06</wgt>
  <wgt id="28">2.87541e-06</wgt>
  <wgt id="29">2.80693e-06</wgt>
  <wgt id="30">2.83075e-06</wgt>
  <wgt id="31">2.81796e-06</wgt>
  <wgt id="32">2.82848e-06</wgt>
  <wgt id="33">2.82191e-06</wgt>
  <wgt id="34">2.7867e-06</wgt>
  <wgt id="35">2.89611e-06</wgt>
  <wgt id="36">2.84887e-06</wgt>
  <wgt id="37">2.81219e-06</wgt>
  <wgt id="38">2.8133e-06</wgt>
  <wgt id="39">2.83103e-06</wgt>
  <wgt id="40">2.82664e-06</wgt>
  <wgt id="41">2.82403e-06</wgt>
  <wgt id="42">2.84905e-06</wgt>
  <wgt id="43">2.78528e-06</wgt>
  <wgt id="44">2.83362e-06</wgt>
  <wgt id="45">2.82188e-06</wgt>
  <wgt id="46">2.82473e-06</wgt>
  <wgt id="47">2.82559e-06</wgt>
  <wgt id="48">2.8137e-06</wgt>
  <wgt id="49">2.83363e-06</wgt>
  <wgt id="50">2.81527e-06</wgt>
  <wgt id="51">2.83887e-06</wgt>
  <wgt id="52">2.83671e-06</wgt>
  <wgt id="53">2.82209e-06</wgt>
</rwgt>
</event>
<event>
 10      0 +2.8251000e-06 1.40462600e+03 7.54677100e-03 8.75957700e-02
        2 -1    0    0  502    0 +0.00000000000e+00 +0.00000000000e+00 +9.20445234640e+02  9.20445234640e+02  0.00000000000e+00 0.0000e+00 -1.0000e+00
        2 -1    0    0  501    0 +0.00000000000e+00 +0.00000000000e+00 -9.22653497510e+02  9.22653497510e+02  0.00000000000e+00 0.0000e+00 -1.0000e+00
       24  2    1    2    0    0 +2.42363615441e+00 -1.17086022076e+02 -2.29873364873e+02  2.72659010787e+02  8.82392299803e+01 0.0000e+00 0.0000e+00
       12  1    3    3    0    0 -4.27634602242e+01 -5.84471369902e+01 -1.20471665359e+02  1.40563876964e+02  0.00000000000e+00 0.0000e+00 -1.0000e+00
      -11  1    3    3    0    0 +4.51870963786e+01 -5.86388850862e+01 -1.09401699514e+02  1.32095133823e+02  0.00000000000e+00 0.0000e+00 1.0000e+00
       24  2    1    2    0    0 +1.20599220224e+02 +2.80623368197e+02 +6.60849868706e+02  7.31861754317e+02  7.48694314605e+01 0.0000e+00 0.0000e+00
        2  1    6    6  503    0 +7.15349122509e+01 +2.41038655334e+02 +5.25919834232e+02  5.82930998554e+02  0.00000000000e+00 0.0000e+00 -1.0000e+00
       -1  1    6    6    0  503 +4.90643079727e+01 +3.95847128629e+01 +1.34930034473e+02  1.48930755764e+02  0.00000000000e+00 0.0000e+00 1.0000e+00
        1  1    1    2  501    0 -1.93991158452e+02 -2.20209653234e+02 -5.89093422771e+02  6.58145820991e+02  0.00000000000e+00 0.0000e+00 -1.0000e+00
        1  1    1    2  502    0 +7.09683020740e+01 +5.66723071140e+01 +1.55908656069e+02  1.80432146055e+02  0.00000000000e+00 0.0000e+00 -1.0000e+00
#  0.1300000e+05  0.1300000e+05  0.1300000e+05  0.1300000e+05
<mgrwt>
<rscale>  2 0.10427573e+04</rscale>
<asrwt>0</asrwt>
<pdfrwt beam="1">  1        2 0.14160696e+00 0.14046261e+04</pdfrwt>
<pdfrwt beam="2">  1        2 0.14194669e+00 0.42662935e+03</pdfrwt>
<totfact> 0.97671855e-01</totfact>
</mgrwt>
<clustering>
<clus scale="   82.243">  3  6 -1 -1</clus>
<clus scale="  290.726">  4  5 -1 -1</clus>
<clus scale="  426.629">  2  3  1 -1</clus>
<clus scale=" 1404.626">  1  3  2 -1</clus>
</clustering>
<rwgt>
  <wgt id="1">4.42895e-06</wgt>
  <wgt id="2">3.17116e-06</wgt>
  <wgt id="3">2.38533e-06</wgt>
  <wgt id="4">3.94563e-06</wgt>
  <wgt id="5">2.8251e-06</wgt>
  <wgt id="6">2.12503e-06</wgt>
  <wgt id="7">3.55182e-06</wgt>
  <wgt id="8">2.54313e-06</wgt>
  <wgt id="9">1.91293e-06</wgt>
  <wgt id="10">2.8251e-06</wgt>
  <wgt id="11">2.8251e-06</wgt>
  <wgt id="12">2.8251e-06</wgt>
  <wgt id="13">2.8251e-06</wgt>
  <wgt id="14">2.82796e-06</wgt>
  <wgt id="15">2.82267e-06</wgt>
  <wgt id="16">2.81312e-06</wgt>
  <wgt id="17">2.8384e-06</wgt>
  <wgt id="18">2.81163e-06</wgt>
  <wgt id="19">2.84509e-06</wgt>
  <wgt id="20">2.81327e-06</wgt>
  <wgt id="21">2.83307e-06</wgt>
  <wgt id="22">2.83259e-06</wgt>
  <wgt id="23">2.81449e-06</wgt>
  <wgt id="24">2.86662e-06</wgt>
  <wgt id="25">2.79947e-06</wgt>
  <wgt id="26">2.82464e-06</wgt>
  <wgt id="27">2.82573e-06</wgt>
  <wgt id="28">2.87739e-06</wgt>
  <wgt id="29">2.80621e-06</wgt>
  <wgt id="30">2.83064e-06</wgt>
  <wgt id="31">2.81813e-06</wgt>
  <wgt id="32">2.82847e-06</wgt>
  <wgt id="33">2.82184e-06</wgt>
  <wgt id="34">2.78716e-06</wgt>
  <wgt id="35">2.89541e-06</wgt>
  <wgt id="36">2.85343e-06</wgt>
  <wgt id="37">2.809e-06</wgt>
  <wgt id="38">2.81138e-06</wgt>
  <wgt id="39">2.83189e-06</wgt>
  <wgt id="40">2.82593e-06</wgt>
  <wgt id="41">2.82467e-06</wgt>
  <wgt id="42">2.84957e-06</wgt>
  <wgt id="43">2.78495e-06</wgt>
  <wgt id="44">2.83316e-06</wgt>
  <wgt id="45">2.8221e-06</wgt>
  <wgt id="46">2.82473e-06</wgt>
  <wgt id="47">2.82551e-06</wgt>
  <wgt id="48">2.81646e-06</wgt>
  <wgt id="49">2.83237e-06</wgt>
  <wgt id="50">2.81514e-06</wgt>
  <wgt id="51">2.83932e-06</wgt>
  <wgt id="52">2.83857e-06</wgt>
  <wgt id="53">2.82153e-06</wgt>
</rwgt>
</event>
<event>
 10      0 +2.8251000e-06 1.44818800e+02 7.54677100e-03 1.12273600e-01
        2 -1    0    0  501    0 +0.00000000000e+00 +0.00000000000e+00 +2.00352383420e+02  2.00352383420e+02  0.00000000000e+00 0.0000e+00 -1.0000e+00
        2 -1    0    0  502    0 +0.00000000000e+00 +0.00000000000e+00 -1.19374227350e+03  1.19374227350e+03  0.00000000000e+00 0.0000e+00 -1.0000e+00
       24  2    1    2    0    0 -7.80961586056e+01 -6.82694466753e+01 +1.08987525707e+02  1.69806648258e+02  7.87165147526e+01 0.0000e+00 0.0000e+00
       12  1    3    3    0    0 -6.83141418415e+01 -1.88692314761e+01 +3.18834819810e+01  7.77137458579e+01  0.00000000000e+00 0.0000e+00 -1.0000e+00
      -11  1    3    3    0    0 -9.78201676414e+00 -4.94002151993e+01 +7.71040437256e+01  9.20929024005e+01  0.00000000000e+00 0.0000e+00 1.0000e+00
       24  2    1    2    0    0 +9.13813410755e+01 -5.03590343994e+01 -4.84738704409e+02  5.02869283409e+02  8.37813989004e+01 0.0000e+00 0.0000e+00
        4  1    6    6  503    0 +7.64699766685e+01 -2.22283998070e+01 -4.44404290777e+02  4.51483037058e+02  0.00000000000e+00 0.0000e+00 -1.0000e+00
       -3  1    6    6    0  503 +1.49113644070e+01 -2.81306345923e+01 -4.03344136316e+01  5.13862463511e+01  0.00000000000e+00 0.0000e+00 1.0000e+00
        1  1    1    2  501    0 -1.55442477002e+02 -3.60387933927e+01 -3.13654436133e+02  3.51909453684e+02  0.00000000000e+00 0.0000e+00 -1.0000e+00
        1  1    1    2  502    0 +1.42157294532e+02 +1.54667274467e+02 -3.03984275244e+02  3.69509271569e+02  0.00000000000e+00 0.0000e+00 -1.0000e+00
#  0.1300000e+05  0.1300000e+05  0.1300000e+05  0.1300000e+05
<mgrwt>
<rscale>  2 0.14426105e+03</rscale>
<asrwt>0</asrwt>
<pdfrwt beam="1">  1        2 0.30823444e-01 0.13106133e+03</pdfrwt>
<pdfrwt beam="2">  1        2 0.18365266e+00 0.12905395e+03</pdfrwt>
<totfact> 0.70437514e+00</totfact>
</mgrwt>
<clustering>
<clus scale="  131.061">  1  3  2 -1</clus>
<clus scale="  129.054">  2  4  1 -1</clus>
<clus scale="  160.020">  1  6  2 -1</clus>
<clus scale="  160.020">  1  3  2 -1</clus>
</clustering>
<rwgt>
  <wgt id="1">4.65537e-06</wgt>
  <wgt id="2">2.9831e-06</wgt>
  <wgt id="3">2.0795e-06</wgt>
  <wgt id="4">4.4088e-06</wgt>
  <wgt id="5">2.8251e-06</wgt>
  <wgt id="6">1.96936e-06</wgt>
  <wgt id="7">4.15192e-06</wgt>
  <wgt id="8">2.66049e-06</wgt>
  <wgt id="9">1.85461e-06</wgt>
  <wgt id="10">2.8251e-06</wgt>
  <wgt id="11">2.8251e-06</wgt>
  <wgt id="12">2.8251e-06</wgt>
  <wgt id="13">2.8251e-06</wgt>
  <wgt id="14">2.82851e-06</wgt>
  <wgt id="15">2.82226e-06</wgt>
  <wgt id="16">2.82377e-06</wgt>
  <wgt id="17">2.82641e-06</wgt>
  <wgt id="18">2.81362e-06</wgt>
  <wgt id="19">2.84208e-06</wgt>
  <wgt id="20">2.81719e-06</wgt>
  <wgt id="21">2.83038e-06</wgt>
  <wgt id="22">2.83105e-06</wgt>
  <wgt id="23">2.81657e-06</wgt>
  <wgt id="24">2.85842e-06</wgt>
  <wgt id="25">2.80451e-06</wgt>
  <wgt id="26">2.82468e-06</wgt>
  <wgt id="27">2.82571e-06</wgt>
  <wgt id="28">2.8593e-06</wgt>
  <wgt id="29">2.81263e-06</wgt>
  <wgt id="30">2.83277e-06</wgt>
  <wgt id="31">2.81496e-06</wgt>
  <wgt id="32">2.82945e-06</wgt>
  <wgt id="33">2.82093e-06</wgt>
  <wgt id="34">2.79259e-06</wgt>
  <wgt id="35">2.88431e-06</wgt>
  <wgt id="36">2.83419e-06</wgt>
  <wgt id="37">2.81996e-06</wgt>
  <wgt id="38">2.81716e-06</wgt>
  <wgt id="39">2.82897e-06</wgt>
  <wgt id="40">2.82641e-06</wgt>
  <wgt id="41">2.82426e-06</wgt>
  <wgt id="42">2.8444e-06</wgt>
  <wgt id="43">2.78885e-06</wgt>
  <wgt id="44">2.83292e-06</wgt>
  <wgt id="45">2.82212e-06</wgt>
  <wgt id="46">2.82223e-06</wgt>
  <wgt id="47">2.82724e-06</wgt>
  <wgt id="48">2.80232e-06</wgt>
  <wgt id="49">2.83755e-06</wgt>
  <wgt id="50">2.81465e-06</wgt>
  <wgt id="51">2.83376e-06</wgt>
  <wgt id="52">2.82958e-06</wgt>
  <wgt id="53">2.82378e-06</wgt>
</rwgt>
</event>
<event>
 11      0 +2.8251000e-06 2.41832400e+02 7.54677100e-03 1.07227500e-01
        2 -1    0    0  501    0 +0.00000000000e+00 +0.00000000000e+00 +1.77485276650e+03  1.77485276650e+03  0.00000000000e+00 0.0000e+00 -1.0000e+00
       -1 -1    0    0    0  501 +0.00000000000e+00 +0.00000000000e+00 -2.36081123520e+02  2.36081123520e+02  0.00000000000e+00 0.0000e+00 1.0000e+00
       24  2    1    2    0    0 -1.58051206142e+02 -5.25583615992e+01 +6.46089910691e+02  6.72112898839e+02  8.10000676064e+01 0.0000e+00 0.0000e+00
        2  1    3    3  504    0 -1.58806044615e+02 -6.30497793706e+01 +5.62911123269e+02  5.88271678041e+02  0.00000000000e+00 0.0000e+00 -1.0000e+00
       -1  1    3    3    0  504 +7.54838472652e-01 +1.04914177714e+01 +8.31787874218e+01  8.38412207982e+01  0.00000000000e+00 0.0000e+00 1.0000e+00
       24  2    1    2    0    0 +1.40223001345e+01 +2.95135665226e+01 -2.66661330457e+01  9.18751468266e+01  8.16228181506e+01 0.0000e+00 0.0000e+00
       14  1    6    6    0    0 +2.16484099332e+01 +3.65694769155e+01 -5.04247432548e+01  6.59441811445e+01  0.00000000000e+00 0.0000e+00 -1.0000e+00
      -13  1    6    6    0    0 -7.62610979872e+00 -7.05591039284e+00 +2.37586102091e+01  2.59309656820e+01  0.00000000000e+00 0.0000e+00 1.0000e+00
       21  1    1    2  503  502 -6.09679234228e+01 -4.64656796719e+00 +1.80183974981e+02  1.90275965693e+02  0.00000000000e+00 0.0000e+00 1.0000e+00
        1  1    1    2  502    0 -1.21592960940e+02 -6.84666906248e+00 +7.17263880282e+02  7.27529517604e+02  0.00000000000e+00 0.0000e+00 -1.0000e+00
       -2  1    1    2    0  503 +3.26589790371e+02 +3.45380321063e+01 +2.19000100715e+01  3.29140361058e+02  0.00000000000e+00 0.0000e+00 1.0000e+00
#  0.1300000e+05  0.1300000e+05  0.4188391e+02  0.1300000e+05  0.1300000e+05
<mgrwt>
<rscale>  2 0.20046667e+03</rscale>
<asrwt>  1 0.41883907e+02</asrwt>
<pdfrwt beam="1">  1        2 0.27305427e+00 0.18372507e+03</pdfrwt>
<pdfrwt beam="2">  1       -1 0.36320173e-01 0.86751932e+02</pdfrwt>
<totfact> 0.15455125e-01</totfact>
</mgrwt>
<clustering>
<clus scale="   41.884">  5  6 -1 -1</clus>
<clus scale="   86.752">  2  4  1 -1</clus>
<clus scale="  183.725">  1  3  2 -1</clus>
<clus scale="  312.782">  2  7  1 -1</clus>
<clus scale="  318.318">  1  3  2 -1</clus>
</clustering>
<rwgt>
  <wgt id="1">4.79437e-06</wgt>
  <wgt id="2">3.14522e-06</wgt>
  <wgt id="3">2.22657e-06</wgt>
  <wgt id="4">4.3064e-06</wgt>
  <wgt id="5">2.8251e-06</wgt>
  <wgt id="6">1.99995e-06</wgt>
  <wgt id="7">3.86261e-06</wgt>
  <wgt id="8">2.53396e-06</wgt>
  <wgt id="9">1.79385e-06</wgt>
  <wgt id="10">3.74438e-06</wgt>
  <wgt id="11">2.8251e-06</wgt>
  <wgt id="12">2.27403e-06</wgt>
  <wgt id="13">2.8251e-06</wgt>
  <wgt id="14">2.83027e-06</wgt>
  <wgt id="15">2.82079e-06</wgt>
  <wgt id="16">2.82991e-06</wgt>
  <wgt id="17">2.8195e-06</wgt>
  <wgt id="18">2.80995e-06</wgt>
  <wgt id="19">2.84758e-06</wgt>
  <wgt id="20">2.83882e-06</wgt>
  <wgt id="21">2.81587e-06</wgt>
  <wgt id="22">2.83547e-06</wgt>
  <wgt id="23">2.81024e-06</wgt>
  <wgt id="24">2.88e-06</wgt>
  <wgt id="25">2.79153e-06</wgt>
  <wgt id="26">2.82657e-06</wgt>
  <wgt id="27">2.82312e-06</wgt>
  <wgt id="28">2.85104e-06</wgt>
  <wgt id="29">2.81567e-06</wgt>
  <wgt id="30">2.83074e-06</wgt>
  <wgt id="31">2.81709e-06</wgt>
  <wgt id="32">2.83484e-06</wgt>
  <wgt id="33">2.8157e-06</wgt>
  <wgt id="34">2.79782e-06</wgt>
  <wgt id="35">2.87486e-06</wgt>
  <wgt id="36">2.8487e-06</wgt>
  <wgt id="37">2.81066e-06</wgt>
  <wgt id="38">2.83056e-06</wgt>
  <wgt id="39">2.82308e-06</wgt>
  <wgt id="40">2.8238e-06</wgt>
  <wgt id="41">2.82713e-06</wgt>
  <wgt id="42">2.84778e-06</wgt>
  <wgt id="43">2.77758e-06</wgt>
  <wgt id="44">2.83018e-06</wgt>
  <wgt id="45">2.82348e-06</wgt>
  <wgt id="46">2.81458e-06</wgt>
  <wgt id="47">2.83258e-06</wgt>
  <wgt id="48">2.83565e-06</wgt>
  <wgt id="49">2.82296e-06</wgt>
  <wgt id="50">2.83138e-06</wgt>
  <wgt id="51">2.81535e-06</wgt>
  <wgt id="52">2.841e-06</wgt>
  <wgt id="53">2.82098e-06</wgt>
</rwgt>
</event>
<event>
 10      0 +2.8251000e-06 6.69482100e+02 7.54677100e-03 9.66573900e-02
        2 -1    0    0  502    0 +0.00000000000e+00 +0.00000000000e+00 +3.02310794540e+03  3.02310794540e+03  0.00000000000e+00 0.0000e+00 -1.0000e+00
        2 -1    0    0  501    0 +0.00000000000e+00 +0.00000000000e+00 -3.62984380720e+02  3.62984380720e+02  0.00000000000e+00 0.0000e+00 -1.0000e+00
       24  2    1    2    0    0 -9.93167236670e+01 +4.87608158253e+01 -2.56918038985e+02  2.90812614965e+02  7.95215034252e+01 0.0000e+00 0.0000e+00
        4  1    3    3  503    0 -7.89857369765e+01 +7.08876049753e+01 -1.96181967242e+02  2.23049688311e+02  0.00000000000e+00 0.0000e+00 -1.0000e+00
       -3  1    3    3    0  503 -2.03309866905e+01 -2.21267891500e+01 -6.07360717428e+01  6.77629266535e+01  0.00000000000e+00 0.0000e+00 1.0000e+00
       24  2    1    2    0    0 -1.99604986795e+01 -1.05483215120e+02 +2.51631256236e+03  2.51995935673e+03  8.27110508040e+01 0.0000e+00 0.0000e+00
        4  1    6    6  504    0 -1.84169047030e+01 -8.77506030551e+01 +1.13630519411e+03  1.13983720104e+03  0.00000000000e+00 0.0000e+00 -1.0000e+00
       -3  1    6    6    0  504 -1.54359397648e+00 -1.77326120649e+01 +1.38000736825e+03  1.38012215569e+03  0.00000000000e+00 0.0000e+00 1.0000e+00
        1  1    1    2  501    0 +1.77745303106e+02 +8.24950511548e+01 +2.89412880643e+01  1.98081862865e+02  0.00000000000e+00 0.0000e+00 -1.0000e+00
        1  1    1    2  502    0 -5.84680807594e+01 -2.57726518602e+01 +3.71787753243e+02  3.77238491558e+02  0.00000000000e+00 0.0000e+00 -1.0000e+00
#  0.1300000e+05  0.1300000e+05  0.1300000e+05  0.1300000e+05
<mgrwt>
<rscale>  2 0.44750826e+03</rscale>
<asrwt>0</asrwt>
<pdfrwt beam="1">  1        2 0.46509353e+00 0.13365565e+03</pdfrwt>
<pdfrwt beam="2">  1        2 0.55843751e-01 0.66948209e+03</pdfrwt>
<totfact> 0.28139210e-01</totfact>
</mgrwt>
<clustering>
<clus scale="   64.962">  3  6 -1 -1</clus>
<clus scale="  133.656">  1  4  2 -1</clus>
<clus scale="  183.173">  1  5  2 -1</clus>
<clus scale="  669.482">  1  3  2 -1</clus>
</clustering>
<rwgt>
  <wgt id="1">5.24619e-06</wgt>
  <wgt id="2">3.60935e-06</wgt>
  <wgt id="3">2.6396e-06</wgt>
  <wgt id="4">4.10628e-06</wgt>
  <wgt id="5">2.8251e-06</wgt>
  <wgt id="6">2.06606e-06</wgt>
  <wgt id="7">3.33766e-06</wgt>
  <wgt id="8">2.2963e-06</wgt>
  <wgt id="9">1.67933e-06</wgt>
  <wgt id="10">2.8251e-06</wgt>
  <wgt id="11">2.8251e-06</wgt>
  <wgt id="12">2.8251e-06</wgt>
  <wgt id="13">2.8251e-06</wgt>
  <wgt id="14">2.82858e-06</wgt>
  <wgt id="15">2.82223e-06</wgt>
  <wgt id="16">2.81115e-06</wgt>
  <wgt id="17">2.8407e-06</wgt>
  <wgt id="18">2.81012e-06</wgt>
  <wgt id="19">2.8475e-06</wgt>
  <wgt id="20">2.81591e-06</wgt>
  <wgt id="21">2.83125e-06</wgt>
  <wgt id="22">2.8337e-06</wgt>
  <wgt id="23">2.81294e-06</wgt>
  <wgt id="24">2.87207e-06</wgt>
  <wgt id="25">2.79631e-06</wgt>
  <wgt id="26">2.8243e-06</wgt>
  <wgt id="27">2.82634e-06</wgt>
  <wgt id="28">2.84477e-06</wgt>
  <wgt id="29">2.81771e-06</wgt>
  <wgt id="30">2.82685e-06</wgt>
  <wgt id="31">2.82275e-06</wgt>
  <wgt id="32">2.81903e-06</wgt>
  <wgt id="33">2.83087e-06</wgt>
  <wgt id="34">2.78816e-06</wgt>
  <wgt id="35">2.8932e-06</wgt>
  <wgt id="36">2.84078e-06</wgt>
  <wgt id="37">2.81789e-06</wgt>
  <wgt id="38">2.81626e-06</wgt>
  <wgt id="39">2.82992e-06</wgt>
  <wgt id="40">2.84061e-06</wgt>
  <wgt id="41">2.80974e-06</wgt>
  <wgt id="42">2.84477e-06</wgt>
  <wgt id="43">2.79118e-06</wgt>
  <wgt id="44">2.83669e-06</wgt>
  <wgt id="45">2.82058e-06</wgt>
  <wgt id="46">2.82503e-06</wgt>
  <wgt id="47">2.82543e-06</wgt>
  <wgt id="48">2.81604e-06</wgt>
  <wgt id="49">2.83482e-06</wgt>
  <wgt id="50">2.81546e-06</wgt>
  <wgt id="51">2.83893e-06</wgt>
  <wgt id="52">2.83236e-06</wgt>
  <wgt id="53">2.82357e-06</wgt>
</rwgt>
</event>
<event>
 12      0 +2.8251000e-06 4.92734700e+02 7.54677100e-03 1.00722800e-01
        2 -1    0    0  503    0 +0.00000000000e+00 +0.00000000000e+00 +1.61125191600e+03  1.61125191600e+03  0.00000000000e+00 0.0000e+00 -1.0000e+00
        2 -1    0    0  501    0 +0.00000000000e+00 +0.00000000000e+00 -1.09017202210e+03  1.09017202210e+03  0.00000000000e+00 0.0000e+00 -1.0000e+00
       24  2    1    2    0    0 -2.57539630524e+01 -3.09277043109e+01 -2.71921000497e+02  2.86445664463e+02  8.05623899306e+01 0.0000e+00 0.0000e+00
        4  1    3    3  505    0 +2.65362363987e+01 +4.46932176288e+00 -8.04608754120e+01  8.48416121446e+01  0.00000000000e+00 0.0000e+00 -1.0000e+00
       -3  1    3    3    0  505 -5.22901994511e+01 -3.53970260738e+01 -1.91460125085e+02  2.01604052318e+02  0.00000000000e+00 0.0000e+00 1.0000e+00
       24  2    1    2    0    0 +3.90364738731e+01 -3.45008441181e+02 +3.49176944826e+02  4.98782607737e+02  7.94032757807e+01 0.0000e+00 0.0000e+00
        4  1    6    6  506    0 +6.14927237377e+01 -2.48773972742e+02 +2.34019157415e+02  3.47037189107e+02  0.00000000000e+00 0.0000e+00 -1.0000e+00
       -3  1    6    6    0  506 -2.24562498645e+01 -9.62344684390e+01 +1.15157787411e+02  1.51745418630e+02  0.00000000000e+00 0.0000e+00 1.0000e+00
       21  1    1    2  503  504 -3.67240319696e+01 -9.21282558409e+01 +1.19660928796e+02  1.55418814591e+02  0.00000000000e+00 0.0000e+00 1.0000e+00
       21  1    1    2  504  502 +3.85203358629e+02 -1.02705195203e+01 +4.08475750460e+01  3.87499207041e+02  0.00000000000e+00 0.0000e+00 -1.0000e+00
        1  1    1    2  501    0 -2.91214877449e+02 +6.79246764036e+02 +6.26861836721e+02  9.69091344321e+02  0.00000000000e+00 0.0000e+00 -1.0000e+00
        1  1    1    2  502    0 -7.05469600306e+01 -2.00911843183e+02 -3.43546390993e+02  4.04186299947e+02  0.00000000000e+00 0.0000e+00 -1.0000e+00
#  0.1300000e+05  0.1300000e+05  0.1000949e+03  0.3605204e+03  0.1300000e+05  0.1300000e+05
<mgrwt>
<rscale>  3 0.32199315e+03</rscale>
<asrwt>  1 0.10009490e+03</asrwt>
<pdfrwt beam="1">  2        2        2 0.24788491e+00 0.22078484e+00 0.10009490e+03 0.49273471e+03</pdfrwt>
<pdfrwt beam="2">  1        2 0.16771877e+00 0.89855995e+02</pdfrwt>
<totfact> 0.55841755e-03</totfact>
</mgrwt>
<clustering>
<clus scale="   89.856">  2  3  1 -1</clus>
<clus scale="  100.095">  1  5  2 -1</clus>
<clus scale="  233.178">  2  8  1 -1</clus>
<clus scale="  360.520">  2  6  1 -1</clus>
<clus scale="  486.128">  2  7  1 -1</clus>
<clus scale="  492.735">  1  3  2 -1</clus>
</clustering>
<rwgt>
  <wgt id="1">6.10714e-06</wgt>
  <wgt id="2">3.3926e-06</wgt>
  <wgt id="3">2.08221e-06</wgt>
  <wgt id="4">5.08556e-06</wgt>
  <wgt id="5">2.8251e-06</wgt>
  <wgt id="6">1.7339e-06</wgt>
  <wgt id="7">4.33149e-06</wgt>
  <wgt id="8">2.40621e-06</wgt>
  <wgt id="9">1.47681e-06</wgt>
  <wgt id="10">3.58116e-06</wgt>
  <wgt id="11">2.8251e-06</wgt>
  <wgt id="12">2.3366e-06</wgt>
  <wgt id="13">2.8251e-06</wgt>
  <wgt id="14">2.82807e-06</wgt>
  <wgt id="15">2.82267e-06</wgt>
  <wgt id="16">2.80717e-06</wgt>
  <wgt id="17">2.84518e-06</wgt>
  <wgt id="18">2.81069e-06</wgt>
  <wgt id="19">2.84648e-06</wgt>
  <wgt id="20">2.81736e-06</wgt>
  <wgt id="21">2.83034e-06</wgt>
  <wgt id="22">2.83382e-06</wgt>
  <wgt id="23">2.81287e-06</wgt>
  <wgt id="24">2.8721e-06</wgt>
  <wgt id="25">2.79624e-06</wgt>
  <wgt id="26">2.82571e-06</wgt>
  <wgt id="27">2.82434e-06</wgt>
  <wgt id="28">2.87825e-06</wgt>
  <wgt id="29">2.80591e-06</wgt>
  <wgt id="30">2.83143e-06</wgt>
  <wgt id="31">2.81721e-06</wgt>
  <wgt id="32">2.82615e-06</wgt>
  <wgt id="33">2.82413e-06</wgt>
  <wgt id="34">2.78191e-06</wgt>
  <wgt id="35">2.90511e-06</wgt>
  <wgt id="36">2.84758e-06</wgt>
  <wgt id="37">2.81252e-06</wgt>
  <wgt id="38">2.81367e-06</wgt>
  <wgt id="39">2.83124e-06</wgt>
  <wgt id="40">2.82926e-06</wgt>
  <wgt id="41">2.82117e-06</wgt>
  <wgt id="42">2.85027e-06</wgt>
  <wgt id="43">2.78541e-06</wgt>
  <wgt id="44">2.83101e-06</wgt>
  <wgt id="45">2.8231e-06</wgt>
  <wgt id="46">2.82289e-06</wgt>
  <wgt id="47">2.8265e-06</wgt>
  <wgt id="48">2.82727e-06</wgt>
  <wgt id="49">2.82933e-06</wgt>
  <wgt id="50">2.81745e-06</wgt>
  <wgt id="51">2.83723e-06</wgt>
  <wgt id="52">2.84275e-06</wgt>
  <wgt id="53">2.82072e-06</wgt>
</rwgt>
</event>
<event>
 10      0 +2.8251000e-06 1.45316500e+02 7.54677100e-03 1.12230600e-01
        2 -1    0    0  502    0 +0.00000000000e+00 +0.00000000000e+00 +1.06362948820e+03  1.06362948820e+03  0.00000000000e+00 0.0000e+00 -1.0000e+00
        4 -1    0    0  501    0 +0.00000000000e+00 +0.00000000000e+00 -1.99397042290e+02  1.99397042290e+02  0.00000000000e+00 0.0000e+00 -1.0000e+00
       24  2    1    2    0    0 -5.38067138657e+01 +5.40666841524e+01 -3.32738895599e+01  1.16239473537e+02  8.11547576517e+01 0.0000e+00 0.0000e+00
       14  1    3    3    0    0 +3.16858763347e+00 +2.80205007634e+01 -4.44143371706e+01  5.26100917783e+01  0.00000000000e+00 0.0000e+00 -1.0000e+00
      -13  1    3    3    0    0 -5.69753014992e+01 +2.60461833890e+01 +1.11404476107e+01  6.36293817589e+01  0.00000000000e+00 0.0000e+00 1.0000e+00
       24  2    1    2    0    0 +5.86568888933e+00 -8.29321141499e+01 +3.79056626954e+02  3.96387219828e+02  8.07883638997e+01 0.0000e+00 0.0000e+00
        4  1    6    6  503    0 -5.95064816402e+00 -1.57244509394e+00 +1.91551153845e+02  1.91650012618e+02  0.00000000000e+00 0.0000e+00 -1.0000e+00
       -3  1    6    6    0  503 +1.18163370534e+01 -8.13596690560e+01 +1.87505473110e+02  2.04737207210e+02  0.00000000000e+00 0.0000e+00 1.0000e+00
        1  1    1    2  501    0 +3.91261248667e+01 -1.23078068906e+02 +5.74023324895e+02  5.88372197011e+02  0.00000000000e+00 0.0000e+00 -1.0000e+00
        3  1    1    2  502    0 +8.81490010967e+00 +1.51943498904e+02 -5.55736163793e+01  1.62027640113e+02  0.00000000000e+00 0.0000e+00 -1.0000e+00
#  0.1300000e+05  0.1300000e+05  0.1300000e+05  0.1300000e+05
<mgrwt>
<rscale>  2 0.14464805e+03</rscale>
<asrwt>0</asrwt>
<pdfrwt beam="1">  1        2 0.16363531e+00 0.11244956e+03</pdfrwt>
<pdfrwt beam="2">  1        4 0.30676468e-01 0.11039474e+03</pdfrwt>
<totfact> 0.19545061e+00</totfact>
</mgrwt>
<clustering>
<clus scale="  110.395">  2  3  1 -1</clus>
<clus scale="  112.450">  1  4  2 -1</clus>
<clus scale="  187.790">  2  6  1 -1</clus>
<clus scale="  187.790">  1  3  2 -1</clus>
</clustering>
<rwgt>
  <wgt id="1">4.14478e-06</wgt>
  <wgt id="2">2.65646e-06</wgt>
  <wgt id="3">1.85204e-06</wgt>
  <wgt id="4">4.40792e-06</wgt>
  <wgt id="5">2.8251e-06</wgt>
  <wgt id="6">1.96962e-06</wgt>
  <wgt id="7">4.42477e-06</wgt>
  <wgt id="8">2.8359e-06</wgt>
  <wgt id="9">1.97715e-06</wgt>
  <wgt id="10">2.8251e-06</wgt>
  <wgt id="11">2.8251e-06</wgt>
  <wgt id="12">2.8251e-06</wgt>
  <wgt id="13">2.8251e-06</wgt>
  <wgt id="14">2.83288e-06</wgt>
  <wgt id="15">2.81883e-06</wgt>
  <wgt id="16">2.82027e-06</wgt>
  <wgt id="17">2.83048e-06</wgt>
  <wgt id="18">2.8201e-06</wgt>
  <wgt id="19">2.83265e-06</wgt>
  <wgt id="20">2.82161e-06</wgt>
  <wgt id="21">2.82753e-06</wgt>
  <wgt id="22">2.82545e-06</wgt>
  <wgt id="23">2.82481e-06</wgt>
  <wgt id="24">2.82522e-06</wgt>
  <wgt id="25">2.82486e-06</wgt>
  <wgt id="26">2.83018e-06</wgt>
  <wgt id="27">2.81841e-06</wgt>
  <wgt id="28">2.84498e-06</wgt>
  <wgt id="29">2.81787e-06</wgt>
  <wgt id="30">2.83222e-06</wgt>
  <wgt id="31">2.81464e-06</wgt>
  <wgt id="32">2.82351e-06</wgt>
  <wgt id="33">2.82674e-06</wgt>
  <wgt id="34">2.81493e-06</wgt>
  <wgt id="35">2.84339e-06</wgt>
  <wgt id="36">2.83633e-06</wgt>
  <wgt id="37">2.81862e-06</wgt>
  <wgt id="38">2.81672e-06</wgt>
  <wgt id="39">2.82922e-06</wgt>
  <wgt id="40">2.82202e-06</wgt>
  <wgt id="41">2.82981e-06</wgt>
  <wgt id="42">2.82174e-06</wgt>
  <wgt id="43">2.83247e-06</wgt>
  <wgt id="44">2.82769e-06</wgt>
  <wgt id="45">2.82425e-06</wgt>
  <wgt id="46">2.82843e-06</wgt>
  <wgt id="47">2.82322e-06</wgt>
  <wgt id="48">2.81995e-06</wgt>
  <wgt id="49">2.82961e-06</wgt>
  <wgt id="50">2.85011e-06</wgt>
  <wgt id="51">2.78876e-06</wgt>
  <wgt id="52">2.83051e-06</wgt>
  <wgt id="53">2.82387e-06</wgt>
</rwgt>
</event>
<event>
 11      0 +2.8251000e-06 2.57332800e+02 7.54677100e-03 1.05943300e-01
        2 -1    0    0  502    0 +0.00000000000e+00 +0.00000000000e+00 +3.21531546680e+02  3.21531546680e+02  0.00000000000e+00 0.0000e+00 -1.0000e+00
        2 -1    0    0  503    0 +0.00000000000e+00 +0.00000000000e+00 -1.55977270390e+03  1.55977270390e+03  0.00000000000e+00 0.0000e+00 -1.0000e+00
       24  2    1    2    0    0 +6.51615640605e+01 -7.06553001720e+01 -4.25754777751e+02  4.43937589039e+02  8.10879233347e+01 0.0000e+00 0.0000e+00
       14  1    3    3    0    0 +4.75399254109e+01 -4.52524954288e-01 -2.38258749704e+02  2.42955718388e+02  0.00000000000e+00 0.0000e+00 -1.0000e+00
      -13  1    3    3    0    0 +1.76216386496e+01 -7.02027752178e+01 -1.87496028047e+02  2.00981870651e+02  0.00000000000e+00 0.0000e+00 1.0000e+00
       24  2    1    2    0    0 -2.20909178266e+02 +3.56723325665e+01 -7.30489836845e+01  2.47659477048e+02  7.69784528401e+01 0.0000e+00 0.0000e+00
        2  1    6    6  504    0 -1.48369572114e+02 -1.99690959286e+00 -1.88265395549e+01  1.49572578265e+02  0.00000000000e+00 0.0000e+00 -1.0000e+00
       -1  1    6    6    0  504 -7.25396061516e+01 +3.76692421593e+01 -5.42224441296e+01  9.80868987830e+01  0.00000000000e+00 0.0000e+00 1.0000e+00
       21  1    1    2  503  501 -4.44419849335e+01 -1.99143386826e+01 -4.61790141886e+02  4.64350951386e+02  0.00000000000e+00 0.0000e+00 1.0000e+00
        1  1    1    2  501    0 +3.48048133083e+02 -1.76475303066e+02 -1.17750282735e+02  4.07610309755e+02  0.00000000000e+00 0.0000e+00 -1.0000e+00
        1  1    1    2  502    0 -1.47858533944e+02 +2.31372609354e+02 -1.59896971163e+02  3.17745923352e+02  0.00000000000e+00 0.0000e+00 -1.0000e+00
#  0.1300000e+05  0.1300000e+05  0.4883520e+02  0.1300000e+05  0.1300000e+05
<mgrwt>
<rscale>  2 0.21910666e+03</rscale>
<asrwt>  1 0.48835195e+02</asrwt>
<pdfrwt beam="1">  1        2 0.49466392e-01 0.23228384e+03</pdfrwt>
<pdfrwt beam="2">  2        2        2 0.23996503e+00 0.16737115e+00 0.48835195e+02 0.25733278e+03</pdfrwt>
<totfact> 0.33623935e-01</totfact>
</mgrwt>
<clustering>
<clus scale="   48.835">  2  5  1 -1</clus>
<clus scale="  122.085">  2  3  1 -1</clus>
<clus scale="  232.284">  1  4  2 -1</clus>
<clus scale="  285.083">  1  6  2 -1</clus>
<clus scale="  285.083">  1  3  2 -1</clus>
</clustering>
<rwgt>
  <wgt id="1">4.60182e-06</wgt>
  <wgt id="2">3.03676e-06</wgt>
  <wgt id="3">2.15825e-06</wgt>
  <wgt id="4">4.28107e-06</wgt>
  <wgt id="5">2.8251e-06</wgt>
  <wgt id="6">2.00782e-06</wgt>
  <wgt id="7">3.98654e-06</wgt>
  <wgt id="8">2.63073e-06</wgt>
  <wgt id="9">1.86968e-06</wgt>
  <wgt id="10">3.71074e-06</wgt>
  <wgt id="11">2.8251e-06</wgt>
  <wgt id="12">2.28621e-06</wgt>
  <wgt id="13">2.8251e-06</wgt>
  <wgt id="14">2.82835e-06</wgt>
  <wgt id="15">2.82251e-06</wgt>
  <wgt id="16">2.8178e-06</wgt>
  <wgt id="17">2.83326e-06</wgt>
  <wgt id="18">2.81238e-06</wgt>
  <wgt id="19">2.84397e-06</wgt>
  <wgt id="20">2.81711e-06</wgt>
  <wgt id="21">2.83048e-06</wgt>
  <wgt id="22">2.83224e-06</wgt>
  <wgt id="23">2.81502e-06</wgt>
  <wgt id="24">2.86433e-06</wgt>
  <wgt id="25">2.80097e-06</wgt>
  <wgt id="26">2.82481e-06</wgt>
  <wgt id="27">2.8256e-06</wgt>
  <wgt id="28">2.86571e-06</wgt>
  <wgt id="29">2.81037e-06</wgt>
  <wgt id="30">2.83065e-06</wgt>
  <wgt id="31">2.81799e-06</wgt>
  <wgt id="32">2.82823e-06</wgt>
  <wgt id="33">2.82218e-06</wgt>
  <wgt id="34">2.78883e-06</wgt>
  <wgt id="35">2.89185e-06</wgt>
  <wgt id="36">2.83317e-06</wgt>
  <wgt id="37">2.82161e-06</wgt>
  <wgt id="38">2.81743e-06</wgt>
  <wgt id="39">2.82915e-06</wgt>
  <wgt id="40">2.82825e-06</wgt>
  <wgt id="41">2.8223e-06</wgt>
  <wgt id="42">2.84628e-06</wgt>
  <wgt id="43">2.78788e-06</wgt>
  <wgt id="44">2.83298e-06</wgt>
  <wgt id="45">2.82218e-06</wgt>
  <wgt id="46">2.82331e-06</wgt>
  <wgt id="47">2.82659e-06</wgt>
  <wgt id="48">2.80889e-06</wgt>
  <wgt id="49">2.83584e-06</wgt>
  <wgt id="50">2.81618e-06</wgt>
  <wgt id="51">2.83626e-06</wgt>
  <wgt id="52">2.83256e-06</wgt>
  <wgt id="53">2.82322e-06</wgt>
</rwgt>
</event>
<event>
 10      0 +2.8251000e-06 4.26298000e+02 7.54677100e-03 9.73765600e-02
        2 -1    0    0  501    0 +0.00000000000e+00 +0.00000000000e+00 +8.60860184660e+02  8.60860184660e+02  0.00000000000e+00 0.0000e+00 -1.0000e+00
        2 -1    0    0  502    0 +0.00000000000e+00 +0.00000000000e+00 -2.28811707000e+02  2.28811707000e+02  0.00000000000e+00 0.0000e+00 -1.0000e+00
       24  2    1    2    0    0 +8.26576389710e+00 -4.81865755661e+01 -1.48761535526e+02  1.86278407661e+02  1.00892922403e+02 0.0000e+00 0.0000e+00
       14  1    3    3    0    0 -5.02870543883e+00 -4.28805312144e+01 -1.61466536503e+02  1.67139074564e+02  0.00000000000e+00 0.0000e+00 -1.0000e+00
      -13  1    3    3    0    0 +1.32944693359e+01 -5.30604435166e+00 +1.27050009769e+01  1.91393330973e+01  0.00000000000e+00 0.0000e+00 1.0000e+00
       24  2    1    2    0    0 +1.57179018152e+01 +2.63267245250e+01 +5.62685938946e+02  5.69201597443e+02  8.02174780310e+01 0.0000e+00 0.0000e+00
        2  1    6    6  503    0 +1.62100805355e+01 +6.75442892043e+00 +5.35023724667e+02  5.35311848344e+02  0.00000000000e+00 0.0000e+00 -1.0000e+00
       -1  1    6    6    0  503 -4.92178720318e-01 +1.95722956045e+01 +2.76622142791e+01  3.38897490983e+01  0.00000000000e+00 0.0000e+00 1.0000e+00
        1  1    1    2  501    0 +9.69994633083e+00 +6.57005525130e+01 +2.57751721082e+02  2.66170248675e+02  0.00000000000e+00 0.0000e+00 -1.0000e+00
        1  1    1    2  502    0 -3.36836120431e+01 -4.38407014719e+01 -3.96276468417e+01  6.80216378811e+01  0.00000000000e+00 0.0000e+00 -1.0000e+00
#  0.1300000e+05  0.1300000e+05  0.1300000e+05  0.1300000e+05
<mgrwt>
<rscale>  2 0.42135780e+03</rscale>
<asrwt>0</asrwt>
<pdfrwt beam="1">  1        2 0.13244003e+00 0.42629800e+03</pdfrwt>
<pdfrwt beam="2">  1        2 0.35201801e-01 0.40687802e+03</pdfrwt>
<totfact> 0.69268115e+00</totfact>
</mgrwt>
<clustering>
<clus scale="   66.058">  3  5 -1 -1</clus>
<clus scale="   76.052">  4  6 -1 -1</clus>
<clus scale="  406.878">  2  3  1 -1</clus>
<clus scale="  426.298">  1  3  2 -1</clus>
</clustering>
<rwgt>
  <wgt id="1">4.28145e-06</wgt>
  <wgt id="2">2.9364e-06</wgt>
  <wgt id="3">2.14268e-06</wgt>
  <wgt id="4">4.11917e-06</wgt>
  <wgt id="5">2.8251e-06</wgt>
  <wgt id="6">2.06146e-06</wgt>
  <wgt id="7">3.94523e-06</wgt>
  <wgt id="8">2.70581e-06</wgt>
  <wgt id="9">1.97441e-06</wgt>
  <wgt id="10">2.8251e-06</wgt>
  <wgt id="11">2.8251e-06</wgt>
  <wgt id="12">2.8251e-06</wgt>
  <wgt id="13">2.8251e-06</wgt>
  <wgt id="14">2.82846e-06</wgt>
  <wgt id="15">2.82234e-06</wgt>
  <wgt id="16">2.82518e-06</wgt>
  <wgt id="17">2.82489e-06</wgt>
  <wgt id="18">2.81376e-06</wgt>
  <wgt id="19">2.84196e-06</wgt>
  <wgt id="20">2.81463e-06</wgt>
  <wgt id="21">2.83218e-06</wgt>
  <wgt id="22">2.83076e-06</wgt>
  <wgt id="23">2.81706e-06</wgt>
  <wgt id="24">2.8572e-06</wgt>
  <wgt id="25">2.80529e-06</wgt>
  <wgt id="26">2.824e-06</wgt>
  <wgt id="27">2.82667e-06</wgt>
  <wgt id="28">2.86005e-06</wgt>
  <wgt id="29">2.81237e-06</wgt>
  <wgt id="30">2.83098e-06</wgt>
  <wgt id="31">2.81732e-06</wgt>
  <wgt id="32">2.83004e-06</wgt>
  <wgt id="33">2.82035e-06</wgt>
  <wgt id="34">2.79488e-06</wgt>
  <wgt id="35">2.88035e-06</wgt>
  <wgt id="36">2.8361e-06</wgt>
  <wgt id="37">2.81955e-06</wgt>
  <wgt id="38">2.81632e-06</wgt>
  <wgt id="39">2.82936e-06</wgt>
  <wgt id="40">2.82551e-06</wgt>
  <wgt id="41">2.82515e-06</wgt>
  <wgt id="42">2.84424e-06</wgt>
  <wgt id="43">2.78902e-06</wgt>
  <wgt id="44">2.83458e-06</wgt>
  <wgt id="45">2.8214e-06</wgt>
  <wgt id="46">2.82407e-06</wgt>
  <wgt id="47">2.82624e-06</wgt>
  <wgt id="48">2.79799e-06</wgt>
  <wgt id="49">2.83893e-06</wgt>
  <wgt id="50">2.81454e-06</wgt>
  <wgt id="51">2.8356e-06</wgt>
  <wgt id="52">2.82765e-06</wgt>
  <wgt id="53">2.82427e-06</wgt>
</rwgt>
</event>
<event>
 11      0 +2.8251000e-06 3.89699600e+02 7.54677100e-03 1.02703600e-01
       -1 -1    0    0    0  501 +0.00000000000e+00 +0.00000000000e+00 +9.64608196620e+01  9.64608196620e+01  0.00000000000e+00 0.0000e+00 1.0000e+00
        2 -1    0    0  502    0 +0.00000000000e+00 +0.00000000000e+00 -1.95074877110e+03  1.95074877110e+03  0.00000000000e+00 0.0000e+00 -1.0000e+00
       24  2    1    2    0    0 +6.37390447695e+01 -8.58839449737e+01 -9.33021679203e+02  9.42636471587e+02  8.12117348089e+01 0.0000e+00 0.0000e+00
       14  1    3    3    0    0 +7.09587656798e+01 -9.74224027442e+01 -8.44331343618e+02  8.52890197387e+02  0.00000000000e+00 0.0000e+00 -1.0000e+00
      -13  1    3    3    0    0 -7.21972091022e+00 +1.15384577705e+01 -8.86903355852e+01  8.97462742000e+01  0.00000000000e+00 0.0000e+00 1.0000e+00
       24  2    1    2    0    0 -2.78025677118e+01 -5.10166318974e+01 +7.33738933920e-01  9.95535649068e+01  8.08374567345e+01 0.0000e+00 0.0000e+00
       16  1    6    6    0    0 +1.38135989404e+01 -3.70507474138e+01 +2.74772458591e+01  4.81515569801e+01  0.00000000000e+00 0.0000e+00 -1.0000e+00
      -15  1    6    6    0    0 -4.16161666522e+01 -1.39658844836e+01 -2.67435069252e+01  5.14020079267e+01  1.77700000000e+00 0.0000e+00 1.0000e+00
       21  1    1    2  503  501 -6.22741673030e+01 +1.22430314089e+02 -1.69617700855e+02  2.18259978385e+02  0.00000000000e+00 0.0000e+00 1.0000e+00
        1  1    1    2  502    0 +2.15631647214e+01 +8.12901787024e+01 -6.90367724502e+02  6.95471536628e+02  0.00000000000e+00 0.0000e+00 -1.0000e+00
       -2  1    1    2    0  503 +4.77452552383e+00 -6.68199159205e+01 -6.20145858121e+01  9.12880392551e+01  0.00000000000e+00 0.0000e+00 1.0000e+00
#  0.1300000e+05  0.1300000e+05  0.1229324e+03  0.8423415e+02  0.1300000e+05
<mgrwt>
<rscale>  3 0.27693821e+03</rscale>
<asrwt>0</asrwt>
<pdfrwt beam="1">  1        2 0.30011520e+00 0.38969958e+03</pdfrwt>
<pdfrwt beam="2">  1       -1 0.14840126e-01 0.99389780e+02</pdfrwt>
<totfact> 0.32107563e-01</totfact>
</mgrwt>
<clustering>
<clus scale="   67.035">  3  7 -1 -1</clus>
<clus scale="   84.234">  3  6 -1 -1</clus>
<clus scale="   99.390">  1  4  2 -1</clus>
<clus scale="  122.932">  1  5  2 -1</clus>
<clus scale="  389.700">  2  3  1 -1</clus>
</clustering>
<rwgt>
  <wgt id="1">5.35362e-06</wgt>
  <wgt id="2">2.93389e-06</wgt>
  <wgt id="3">1.78424e-06</wgt>
  <wgt id="4">5.15511e-06</wgt>
  <wgt id="5">2.8251e-06</wgt>
  <wgt id="6">1.71807e-06</wgt>
  <wgt id="7">4.86634e-06</wgt>
  <wgt id="8">2.66685e-06</wgt>
  <wgt id="9">1.62184e-06</wgt>
  <wgt id="10">2.8251e-06</wgt>
  <wgt id="11">2.8251e-06</wgt>
  <wgt id="12">2.8251e-06</wgt>
  <wgt id="13">2.8251e-06</wgt>
  <wgt id="14">2.83008e-06</wgt>
  <wgt id="15">2.82107e-06</wgt>
  <wgt id="16">2.82569e-06</wgt>
  <wgt id="17">2.82434e-06</wgt>
  <wgt id="18">2.8124e-06</wgt>
  <wgt id="19">2.84407e-06</wgt>
  <wgt id="20">2.83077e-06</wgt>
  <wgt id="21">2.82138e-06</wgt>
  <wgt id="22">2.83251e-06</wgt>
  <wgt id="23">2.81475e-06</wgt>
  <wgt id="24">2.86373e-06</wgt>
  <wgt id="25">2.80156e-06</wgt>
  <wgt id="26">2.82802e-06</wgt>
  <wgt id="27">2.82126e-06</wgt>
  <wgt id="28">2.84278e-06</wgt>
  <wgt id="29">2.81869e-06</wgt>
  <wgt id="30">2.83931e-06</wgt>
  <wgt id="31">2.80493e-06</wgt>
  <wgt id="32">2.82758e-06</wgt>
  <wgt id="33">2.82271e-06</wgt>
  <wgt id="34">2.78847e-06</wgt>
  <wgt id="35">2.89197e-06</wgt>
  <wgt id="36">2.84801e-06</wgt>
  <wgt id="37">2.81289e-06</wgt>
  <wgt id="38">2.82163e-06</wgt>
  <wgt id="39">2.82732e-06</wgt>
  <wgt id="40">2.83055e-06</wgt>
  <wgt id="41">2.82128e-06</wgt>
  <wgt id="42">2.84169e-06</wgt>
  <wgt id="43">2.79149e-06</wgt>
  <wgt id="44">2.8299e-06</wgt>
  <wgt id="45">2.82354e-06</wgt>
  <wgt id="46">2.81406e-06</wgt>
  <wgt id="47">2.83248e-06</wgt>
  <wgt id="48">2.83694e-06</wgt>
  <wgt id="49">2.82254e-06</wgt>
  <wgt id="50">2.81918e-06</wgt>
  <wgt id="51">2.81878e-06</wgt>
  <wgt id="52">2.84223e-06</wgt>
  <wgt id="53">2.82082e-06</wgt>
</rwgt>
</event>
<event>
 11      0 +2.8251000e-06 1.60002800e+02 7.54677100e-03 1.10918000e-01
        2 -1    0    0  501    0 +0.00000000000e+00 +0.00000000000e+00 +4.89312342720e+02  4.89312342720e+02  0.00000000000e+00 0.0000e+00 -1.0000e+00
       -1 -1    0    0    0  501 +0.00000000000e+00 +0.00000000000e+00 -8.52982602650e+02  8.52982602650e+02  0.00000000000e+00 0.0000e+00 1.0000e+00
       24  2    1    2    0    0 -2.77783604438e+01 -6.21835963150e+01 +2.08180775371e+02  2.34422620209e+02  8.35242041072e+01 0.0000e+00 0.0000e+00
        2  1    3    3  504    0 -2.99860398940e+01 -6.87876520776e+01 +2.13080979323e+02  2.25907962268e+02  0.00000000000e+00 0.0000e+00 -1.0000e+00
       -1  1    3    3    0  504 +2.20767945028e+00 +6.60405576269e+00 -4.90020395194e+00  8.51465794042e+00  0.00000000000e+00 0.0000e+00 1.0000e+00
       24  2    1    2    0    0 +7.70115522569e+01 +3.56330618326e+01 -2.46295983585e+02  2.72806211552e+02  8.10001435490e+01 0.0000e+00 0.0000e+00
        2  1    6    6  505    0 +5.97239874296e+01 +4.07435902091e+01 -2.44176423460e+02  2.54654904903e+02  0.00000000000e+00 0.0000e+00 -1.0000e+00
       -1  1    6    6    0  505 +1.72875648273e+01 -5.11052837652e+00 -2.11956012485e+00  1.81513066490e+01  0.00000000000e+00 0.0000e+00 1.0000e+00
       21  1    1    2  503  502 -1.36012483473e+02 +5.58547193856e+01 +1.79657494534e+02  2.32155035871e+02  0.00000000000e+00 0.0000e+00 -1.0000e+00
        1  1    1    2  502    0 -5.70869479041e+01 +1.40272746346e+01 +1.56319472100e+01  6.08279691282e+01  0.00000000000e+00 0.0000e+00 -1.0000e+00
       -2  1    1    2    0  503 +1.43866239564e+02 -4.33314595379e+01 -5.20844493460e+02  5.42083108610e+02  0.00000000000e+00 0.0000e+00 1.0000e+00
#  0.1300000e+05  0.1300000e+05  0.4693079e+02  0.1300000e+05  0.1300000e+05
<mgrwt>
<rscale>  2 0.15713197e+03</rscale>
<asrwt>  1 0.46930786e+02</asrwt>
<pdfrwt beam="1">  1        2 0.75278822e-01 0.10669812e+03</pdfrwt>
<pdfrwt beam="2">  1       -1 0.13122809e+00 0.11471207e+03</pdfrwt>
<totfact> 0.89037384e-02</totfact>
</mgrwt>
<clustering>
<clus scale="   46.931">  5  6 -1 -1</clus>
<clus scale="  106.698">  1  3  2 -1</clus>
<clus scale="  114.712">  2  4  1 -1</clus>
<clus scale="  210.421">  2  7  1 -1</clus>
<clus scale="  223.175">  1  3  2 -1</clus>
</clustering>
<rwgt>
  <wgt id="1">5.01482e-06</wgt>
  <wgt id="2">3.234e-06</wgt>
  <wgt id="3">2.26368e-06</wgt>
  <wgt id="4">4.38076e-06</wgt>
  <wgt id="5">2.8251e-06</wgt>
  <wgt id="6">1.97747e-06</wgt>
  <wgt id="7">3.86891e-06</wgt>
  <wgt id="8">2.49501e-06</wgt>
  <wgt id="9">1.74642e-06</wgt>
  <wgt id="10">3.71932e-06</wgt>
  <wgt id="11">2.8251e-06</wgt>
  <wgt id="12">2.28313e-06</wgt>
  <wgt id="13">2.8251e-06</wgt>
  <wgt id="14">2.82941e-06</wgt>
  <wgt id="15">2.82167e-06</wgt>
  <wgt id="16">2.84466e-06</wgt>
  <wgt id="17">2.80302e-06</wgt>
  <wgt id="18">2.81024e-06</wgt>
  <wgt id="19">2.84746e-06</wgt>
  <wgt id="20">2.85382e-06</wgt>
  <wgt id="21">2.8057e-06</wgt>
  <wgt id="22">2.83805e-06</wgt>
  <wgt id="23">2.8065e-06</wgt>
  <wgt id="24">2.89379e-06</wgt>
  <wgt id="25">2.78312e-06</wgt>
  <wgt id="26">2.82516e-06</wgt>
  <wgt id="27">2.82526e-06</wgt>
  <wgt id="28">2.85724e-06</wgt>
  <wgt id="29">2.81371e-06</wgt>
  <wgt id="30">2.81175e-06</wgt>
  <wgt id="31">2.84196e-06</wgt>
  <wgt id="32">2.8442e-06</wgt>
  <wgt id="33">2.80685e-06</wgt>
  <wgt id="34">2.82067e-06</wgt>
  <wgt id="35">2.83301e-06</wgt>
  <wgt id="36">2.7873e-06</wgt>
  <wgt id="37">2.84501e-06</wgt>
  <wgt id="38">2.92252e-06</wgt>
  <wgt id="39">2.78088e-06</wgt>
  <wgt id="40">2.81561e-06</wgt>
  <wgt id="41">2.8357e-06</wgt>
  <wgt id="42">2.82733e-06</wgt>
  <wgt id="43">2.80422e-06</wgt>
  <wgt id="44">2.86525e-06</wgt>
  <wgt id="45">2.80888e-06</wgt>
  <wgt id="46">2.85592e-06</wgt>
  <wgt id="47">2.80651e-06</wgt>
  <wgt id="48">2.80451e-06</wgt>
  <wgt id="49">2.83512e-06</wgt>
  <wgt id="50">2.81447e-06</wgt>
  <wgt id="51">2.84617e-06</wgt>
  <wgt id="52">2.78786e-06</wgt>
  <wgt id="53">2.83551e-06</wgt>
</rwgt>
</event>
<event>
 11      0 +2.8251000e-06 3.95941400e+02 7.54677100e-03 1.01230100e-01
        2 -1    0    0  503    0 +0.00000000000e+00 +0.00000000000e+00 +1.04730238030e+03  1.04730238030e+03  0.00000000000e+00 0.0000e+00 -1.0000e+00
        2 -1    0    0  502    0 +0.00000000000e+00 +0.00000000000e+00 -2.59594912470e+02  2.59594912470e+02  0.00000000000e+00 0.0000e+00 -1.0000e+00
       24  2    1    2    0    0 -1.03283767344e+02 +2.42138374910e+02 +3.60120749439e+02  4.53115984365e+02  7.95525732444e+01 0.0000e+00 0.0000e+00
        2  1    3    3  504    0 -1.05411725989e+02 +2.30562471068e+02 +3.61208325084e+02  4.41295976813e+02  0.00000000000e+00 0.0000e+00 -1.0000e+00
       -1  1    3    3    0  504 +2.12795864527e+00 +1.15759038424e+01 -1.08757564484e+00  1.18200075528e+01  0.00000000000e+00 0.0000e+00 1.0000e+00
       24  2    1    2    0    0 -3.89505637445e+01 -1.25871339635e+02 +1.38250739471e+02  2.07110579750e+02  8.01297992175e+01 0.0000e+00 0.0000e+00
        4  1    6    6  505    0 +2.15454995195e+00 -1.94679145552e+01 +7.32490294365e+01  7.58225698326e+01  0.00000000000e+00 0.0000e+00 -1.0000e+00
       -3  1    6    6    0  505 -4.11051136965e+01 -1.06403425080e+02 +6.50017100342e+01  1.31288009917e+02  0.00000000000e+00 0.0000e+00 1.0000e+00
       21  1    1    2  503  501 -7.48598439204e+00 +4.35759963378e+01 +1.66348340772e+02  1.72124018942e+02  0.00000000000e+00 0.0000e+00 -1.0000e+00
        1  1    1    2  501    0 +4.54334290121e+01 +1.35516157385e+02 +6.01802627751e+01  1.55082202112e+02  0.00000000000e+00 0.0000e+00 -1.0000e+00
        1  1    1    2  502    0 +1.04286886468e+02 -2.95359188998e+02 +6.28073753723e+01  3.19464507600e+02  0.00000000000e+00 0.0000e+00 -1.0000e+00
#  0.1300000e+05  0.1300000e+05  0.4406452e+02  0.1300000e+05  0.1300000e+05
<mgrwt>
<rscale>  2 0.30963067e+03</rscale>
<asrwt>  1 0.44064522e+02</asrwt>
<pdfrwt beam="1">  2        2        2 0.16112344e+00 0.13347085e+00 0.44064522e+02 0.39594142e+03</pdfrwt>
<pdfrwt beam="2">  1        2 0.39937679e-01 0.39594142e+03</pdfrwt>
<totfact> 0.72121236e-01</totfact>
</mgrwt>
<clustering>
<clus scale="   44.065">  1  5  2 -1</clus>
<clus scale="  147.701">  3  6 -1 -1</clus>
<clus scale="  148.075">  1  4  2 -1</clus>
<clus scale="  330.411">  1  7  2 -1</clus>
<clus scale="  395.941">  1  3  2 -1</clus>
</clustering>
<rwgt>
  <wgt id="1">4.38282e-06</wgt>
  <wgt id="2">2.95509e-06</wgt>
  <wgt id="3">2.13083e-06</wgt>
  <wgt id="4">4.19003e-06</wgt>
  <wgt id="5">2.8251e-06</wgt>
  <wgt id="6">2.0371e-06</wgt>
  <wgt id="7">3.9929e-06</wgt>
  <wgt id="8">2.69219e-06</wgt>
  <wgt id="9">1.94126e-06</wgt>
  <wgt id="10">3.73307e-06</wgt>
  <wgt id="11">2.8251e-06</wgt>
  <wgt id="12">2.27817e-06</wgt>
  <wgt id="13">2.8251e-06</wgt>
  <wgt id="14">2.82837e-06</wgt>
  <wgt id="15">2.82234e-06</wgt>
  <wgt id="16">2.82247e-06</wgt>
  <wgt id="17">2.82785e-06</wgt>
  <wgt id="18">2.81329e-06</wgt>
  <wgt id="19">2.84257e-06</wgt>
  <wgt id="20">2.81512e-06</wgt>
  <wgt id="21">2.83178e-06</wgt>
  <wgt id="22">2.83117e-06</wgt>
  <wgt id="23">2.81639e-06</wgt>
  <wgt id="24">2.85945e-06</wgt>
  <wgt id="25">2.80387e-06</wgt>
  <wgt id="26">2.82422e-06</wgt>
  <wgt id="27">2.8263e-06</wgt>
  <wgt id="28">2.86334e-06</wgt>
  <wgt id="29">2.81117e-06</wgt>
  <wgt id="30">2.83078e-06</wgt>
  <wgt id="31">2.8176e-06</wgt>
  <wgt id="32">2.82968e-06</wgt>
  <wgt id="33">2.82065e-06</wgt>
  <wgt id="34">2.79309e-06</wgt>
  <wgt id="35">2.88363e-06</wgt>
  <wgt id="36">2.83723e-06</wgt>
  <wgt id="37">2.81859e-06</wgt>
  <wgt id="38">2.81569e-06</wgt>
  <wgt id="39">2.82968e-06</wgt>
  <wgt id="40">2.82568e-06</wgt>
  <wgt id="41">2.8248e-06</wgt>
  <wgt id="42">2.84525e-06</wgt>
  <wgt id="43">2.78813e-06</wgt>
  <wgt id="44">2.83378e-06</wgt>
  <wgt id="45">2.82174e-06</wgt>
  <wgt id="46">2.82378e-06</wgt>
  <wgt id="47">2.82627e-06</wgt>
  <wgt id="48">2.80188e-06</wgt>
  <wgt id="49">2.83765e-06</wgt>
  <wgt id="50">2.81519e-06</wgt>
  <wgt id="51">2.83583e-06</wgt>
  <wgt id="52">2.82987e-06</wgt>
  <wgt id="53">2.82371e-06</wgt>
</rwgt>
</event>
<event>
 10      0 +2.8251000e-06 1.52093400e+02 7.54677100e-03 1.11485800e-01
        4 -1    0    0  501    0 +0.00000000000e+00 +0.00000000000e+00 +1.49452609880e+02  1.49452609880e+02  0.00000000000e+00 0.0000e+00 -1.0000e+00
        2 -1    0    0  502    0 +0.00000000000e+00 +0.00000000000e+00 -2.66953964120e+03  2.66953964120e+03  0.00000000000e+00 0.0000e+00 -1.0000e+00
       24  2    1    2    0    0 -6.88262044983e+01 +1.42326895561e+01 +8.89863545362e+01  1.38500134609e+02  7.95242108754e+01 0.0000e+00 0.0000e+00
       16  1    3    3    0    0 -7.70455625742e+01 -3.74948598745e+00 +4.26974595222e+01  8.81654717404e+01  0.00000000000e+00 0.0000e+00 -1.0000e+00
      -15  1    3    3    0    0 +8.21935807596e+00 +1.79821755436e+01 +4.62888950140e+01  5.03346628684e+01  1.77700000000e+00 0.0000e+00 1.0000e+00
       24  2    1    2    0    0 +2.80174311835e+01 -3.14592695225e+01 -1.96117570978e+03  1.96322836011e+03  7.92512913905e+01 0.0000e+00 0.0000e+00
        2  1    6    6  503    0 -1.42847125174e+01 -4.11891478511e+01 -7.42676406846e+02  7.43954867043e+02  0.00000000000e+00 0.0000e+00 -1.0000e+00
       -1  1    6    6    0  503 +4.23021437009e+01 +9.72987832852e+00 -1.21849930294e+03  1.21927349306e+03  0.00000000000e+00 0.0000e+00 1.0000e+00
        1  1    1    2  501    0 +1.46428977729e+01 +5.25151283139e+01 -6.67096663329e+02  6.69320708914e+02  0.00000000000e+00 0.0000e+00 -1.0000e+00
        3  1    1    2  502    0 +2.61658755419e+01 -3.52885483475e+01 +1.91989872559e+01  4.79430474521e+01  0.00000000000e+00 0.0000e+00 -1.0000e+00
#  0.1300000e+05  0.1300000e+05  0.1300000e+05  0.1300000e+05
<mgrwt>
<rscale>  2 0.15156551e+03</rscale>
<asrwt>0</asrwt>
<pdfrwt beam="1">  1        2 0.41069841e+00 0.14999280e+03</pdfrwt>
<pdfrwt beam="2">  1        4 0.22992709e-01 0.15209340e+03</pdfrwt>
<totfact> 0.46696905e-01</totfact>
</mgrwt>
<clustering>
<clus scale="   43.760">  3  6 -1 -1</clus>
<clus scale="   53.839">  4  5 -1 -1</clus>
<clus scale="  149.993">  2  4  1 -1</clus>
<clus scale="  152.093">  2  3  1 -1</clus>
</clustering>
<rwgt>
  <wgt id="1">4.70362e-06</wgt>
  <wgt id="2">3.02519e-06</wgt>
  <wgt id="3">2.11388e-06</wgt>
  <wgt id="4">4.39252e-06</wgt>
  <wgt id="5">2.8251e-06</wgt>
  <wgt id="6">1.97406e-06</wgt>
  <wgt id="7">4.00018e-06</wgt>
  <wgt id="8">2.57276e-06</wgt>
  <wgt id="9">1.79774e-06</wgt>
  <wgt id="10">2.8251e-06</wgt>
  <wgt id="11">2.8251e-06</wgt>
  <wgt id="12">2.8251e-06</wgt>
  <wgt id="13">2.8251e-06</wgt>
  <wgt id="14">2.83261e-06</wgt>
  <wgt id="15">2.81883e-06</wgt>
  <wgt id="16">2.81198e-06</wgt>
  <wgt id="17">2.83974e-06</wgt>
  <wgt id="18">2.81799e-06</wgt>
  <wgt id="19">2.83561e-06</wgt>
  <wgt id="20">2.82469e-06</wgt>
  <wgt id="21">2.82542e-06</wgt>
  <wgt id="22">2.82727e-06</wgt>
  <wgt id="23">2.82195e-06</wgt>
  <wgt id="24">2.83461e-06</wgt>
  <wgt id="25">2.81893e-06</wgt>
  <wgt id="26">2.83074e-06</wgt>
  <wgt id="27">2.8173e-06</wgt>
  <wgt id="28">2.82904e-06</wgt>
  <wgt id="29">2.82341e-06</wgt>
  <wgt id="30">2.83449e-06</wgt>
  <wgt id="31">2.81115e-06</wgt>
  <wgt id="32">2.81456e-06</wgt>
  <wgt id="33">2.83499e-06</wgt>
  <wgt id="34">2.80532e-06</wgt>
  <wgt id="35">2.86069e-06</wgt>
  <wgt id="36">2.8355e-06</wgt>
  <wgt id="37">2.82e-06</wgt>
  <wgt id="38">2.82167e-06</wgt>
  <wgt id="39">2.82733e-06</wgt>
  <wgt id="40">2.83477e-06</wgt>
  <wgt id="41">2.81663e-06</wgt>
  <wgt id="42">2.82123e-06</wgt>
  <wgt id="43">2.83403e-06</wgt>
  <wgt id="44">2.82968e-06</wgt>
  <wgt id="45">2.82334e-06</wgt>
  <wgt id="46">2.82758e-06</wgt>
  <wgt id="47">2.82356e-06</wgt>
  <wgt id="48">2.83213e-06</wgt>
  <wgt id="49">2.82682e-06</wgt>
  <wgt id="50">2.84271e-06</wgt>
  <wgt id="51">2.79347e-06</wgt>
  <wgt id="52">2.83195e-06</wgt>
  <wgt id="53">2.82376e-06</wgt>
</rwgt>
</event>
<event>
 12      0 +2.8251000e-06 2.93789700e+02 7.54677100e-03 1.04849100e-01
        2 -1    0    0  501    0 +0.00000000000e+00 +0.00000000000e+00 +1.04621010740e+03  1.04621010740e+03  0.00000000000e+00 0.0000e+00 -1.0000e+00
        2 -1    0    0  503    0 +0.00000000000e+00 +0.00000000000e+00 -5.69076070210e+02  5.69076070210e+02  0.00000000000e+00 0.0000e+00 -1.0000e+00
       24  2    1    2    0    0 +1.95254630429e+02 -1.27405992056e+02 -1.06305238158e+02  2.68145856358e+02  7.90236616873e+01 0.0000e+00 0.0000e+00
       16  1    3    3    0    0 +2.00374733033e+02 -1.19205540805e+02 -1.09997321260e+02  2.57797217365e+02  0.00000000000e+00 0.0000e+00 -1.0000e+00
      -15  1    3    3    0    0 -5.12010260376e+00 -8.20045125089e+00 +3.69208310158e+00  1.03486389936e+01  1.77700000000e+00 0.0000e+00 1.0000e+00
       24  2    1    2    0    0 +4.97610437030e+01 -3.46458047916e+01 +1.80592596386e+02  2.06284702844e+02  7.91403784306e+01 0.0000e+00 0.0000e+00
        2  1    6    6  505    0 +3.14017235888e+01 +2.07810035928e+01 +4.52134169038e+01  5.88402194319e+01  0.00000000000e+00 0.0000e+00 -1.0000e+00
       -1  1    6    6    0  505 +1.83593201141e+01 -5.54268083843e+01 +1.35379179482e+02  1.47444483412e+02  0.00000000000e+00 0.0000e+00 1.0000e+00
       21  1    1    2  503  504 -4.52606129886e+01 +6.33115236579e+00 -1.13462128120e+02  1.22320321680e+02  0.00000000000e+00 0.0000e+00 1.0000e+00
       21  1    1    2  504  502 -2.03570889073e+01 -4.05189628009e+01 +5.19298080521e+01  6.89412966194e+01  0.00000000000e+00 0.0000e+00 -1.0000e+00
        1  1    1    2  501    0 +1.96187355347e+02 +2.30415022088e+02 -5.51536202171e+01  3.07607676472e+02  0.00000000000e+00 0.0000e+00 -1.0000e+00
        1  1    1    2  502    0 -3.75585327583e+02 -3.41754148055e+01 +5.19532619248e+02  6.41986323636e+02  0.00000000000e+00 0.0000e+00 -1.0000e+00
#  0.1300000e+05  0.1300000e+05  0.4559369e+02  0.4463703e+02  0.1300000e+05  0.1300000e+05
<mgrwt>
<rscale>  2 0.23675393e+03</rscale>
<asrwt>  2 0.44637032e+02 0.45593686e+02</asrwt>
<pdfrwt beam="1">  1        2 0.16095540e+00 0.99204591e+02</pdfrwt>
<pdfrwt beam="2">  2        2        2 0.87550165e-01 0.69127708e-01 0.45593686e+02 0.29378966e+03</pdfrwt>
<totfact> 0.47332167e-02</totfact>
</mgrwt>
<clustering>
<clus scale="   44.637">  6  8 -1 -1</clus>
<clus scale="   45.594">  2  5  1 -1</clus>
<clus scale="   99.205">  1  4  2 -1</clus>
<clus scale="  235.228">  2  3  1 -1</clus>
<clus scale="  343.713">  2  7  1 -1</clus>
<clus scale="  366.931">  1  3  2 -1</clus>
</clustering>
<rwgt>
  <wgt id="1">4.68256e-06</wgt>
  <wgt id="2">3.10566e-06</wgt>
  <wgt id="3">2.21464e-06</wgt>
  <wgt id="4">4.25954e-06</wgt>
  <wgt id="5">2.8251e-06</wgt>
  <wgt id="6">2.01457e-06</wgt>
  <wgt id="7">3.89892e-06</wgt>
  <wgt id="8">2.58593e-06</wgt>
  <wgt id="9">1.84401e-06</wgt>
  <wgt id="10">4.91924e-06</wgt>
  <wgt id="11">2.8251e-06</wgt>
  <wgt id="12">1.84013e-06</wgt>
  <wgt id="13">2.8251e-06</wgt>
  <wgt id="14">2.82799e-06</wgt>
  <wgt id="15">2.82273e-06</wgt>
  <wgt id="16">2.81752e-06</wgt>
  <wgt id="17">2.83348e-06</wgt>
  <wgt id="18">2.81218e-06</wgt>
  <wgt id="19">2.84427e-06</wgt>
  <wgt id="20">2.8118e-06</wgt>
  <wgt id="21">2.83409e-06</wgt>
  <wgt id="22">2.83195e-06</wgt>
  <wgt id="23">2.81542e-06</wgt>
  <wgt id="24">2.86359e-06</wgt>
  <wgt id="25">2.80135e-06</wgt>
  <wgt id="26">2.82402e-06</wgt>
  <wgt id="27">2.82659e-06</wgt>
  <wgt id="28">2.87383e-06</wgt>
  <wgt id="29">2.80752e-06</wgt>
  <wgt id="30">2.83022e-06</wgt>
  <wgt id="31">2.81859e-06</wgt>
  <wgt id="32">2.82943e-06</wgt>
  <wgt id="33">2.82096e-06</wgt>
  <wgt id="34">2.78939e-06</wgt>
  <wgt id="35">2.89104e-06</wgt>
  <wgt id="36">2.84998e-06</wgt>
  <wgt id="37">2.81182e-06</wgt>
  <wgt id="38">2.81285e-06</wgt>
  <wgt id="39">2.83111e-06</wgt>
  <wgt id="40">2.82539e-06</wgt>
  <wgt id="41">2.82528e-06</wgt>
  <wgt id="42">2.84828e-06</wgt>
  <wgt id="43">2.7856e-06</wgt>
  <wgt id="44">2.83494e-06</wgt>
  <wgt id="45">2.82137e-06</wgt>
  <wgt id="46">2.82573e-06</wgt>
  <wgt id="47">2.82508e-06</wgt>
  <wgt id="48">2.80778e-06</wgt>
  <wgt id="49">2.83548e-06</wgt>
  <wgt id="50">2.81465e-06</wgt>
  <wgt id="51">2.83949e-06</wgt>
  <wgt id="52">2.83404e-06</wgt>
  <wgt id="53">2.82264e-06</wgt>
</rwgt>
</event>
<event>
 10      0 +2.8251000e-06 1.81116000e+02 7.54677100e-03 1.11167600e-01
        2 -1    0    0  502    0 +0.00000000000e+00 +0.00000000000e+00 +1.45363541680e+02  1.45363541680e+02  0.00000000000e+00 0.0000e+00 -1.0000e+00
        2 -1    0    0  501    0 +0.00000000000e+00 +0.00000000000e+00 -7.16907084730e+02  7.16907084730e+02  0.00000000000e+00 0.0000e+00 -1.0000e+00
       24  2    1    2    0    0 -1.42575276961e+02 -4.47753528369e+00 -2.86273690133e+01  1.67414594095e+02  8.28273030882e+01 0.0000e+00 0.0000e+00
       14  1    3    3    0    0 -1.11077216361e+02 -3.55516113897e+01 -3.69832820622e+01  1.22351249356e+02  0.00000000000e+00 0.0000e+00 -1.0000e+00
      -13  1    3    3    0    0 -3.14980605997e+01 +3.10740761060e+01 +8.35591304893e+00  4.50633447393e+01  0.00000000000e+00 0.0000e+00 1.0000e+00
       24  2    1    2    0    0 +2.70484848876e+01 -4.40268880649e+01 -1.53041460278e+02  1.80923817542e+02  8.14969433924e+01 0.0000e+00 0.0000e+00
       16  1    6    6    0    0 +4.51907000628e+01 -3.24302978241e+01 -1.48962982693e+02  1.59009099745e+02  0.00000000000e+00 0.0000e+00 -1.0000e+00
      -15  1    6    6    0    0 -1.81422151752e+01 -1.15965902408e+01 -4.07847758579e+00  2.19147177964e+01  1.77700000000e+00 0.0000e+00 1.0000e+00
        1  1    1    2  501    0 +2.03283225421e+02 +9.86868052808e+01 -2.14829838179e+02  3.11793224182e+02  0.00000000000e+00 0.0000e+00 -1.0000e+00
        1  1    1    2  502    0 -8.77564333479e+01 -5.01823819322e+01 -1.75044875579e+02  2.02138990591e+02  0.00000000000e+00 0.0000e+00 -1.0000e+00
#  0.1300000e+05  0.1300000e+05  0.1300000e+05  0.1300000e+05
<mgrwt>
<rscale>  2 0.15465320e+03</rscale>
<asrwt>0</asrwt>
<pdfrwt beam="1">  1        2 0.22363622e-01 0.18111598e+03</pdfrwt>
<pdfrwt beam="2">  1        2 0.11029340e+00 0.96286481e+02</pdfrwt>
<totfact> 0.19602898e+01</totfact>
</mgrwt>
<clustering>
<clus scale="   96.286">  2  4  1 -1</clus>
<clus scale="  102.082">  2  6  1 -1</clus>
<clus scale="  162.283">  2  5  1 -1</clus>
<clus scale="  181.116">  1  3  2 -1</clus>
</clustering>
<rwgt>
  <wgt id="1">4.36384e-06</wgt>
  <wgt id="2">2.81087e-06</wgt>
  <wgt id="3">1.96602e-06</wgt>
  <wgt id="4">4.38593e-06</wgt>
  <wgt id="5">2.8251e-06</wgt>
  <wgt id="6">1.97597e-06</wgt>
  <wgt id="7">4.3306e-06</wgt>
  <wgt id="8">2.78946e-06</wgt>
  <wgt id="9">1.95105e-06</wgt>
  <wgt id="10">2.8251e-06</wgt>
  <wgt id="11">2.8251e-06</wgt>
  <wgt id="12">2.8251e-06</wgt>
  <wgt id="13">2.8251e-06</wgt>
  <wgt id="14">2.8286e-06</wgt>
  <wgt id="15">2.82217e-06</wgt>
  <wgt id="16">2.83009e-06</wgt>
  <wgt id="17">2.8194e-06</wgt>
  <wgt id="18">2.81482e-06</wgt>
  <wgt id="19">2.84026e-06</wgt>
  <wgt id="20">2.81582e-06</wgt>
  <wgt id="21">2.83132e-06</wgt>
  <wgt id="22">2.82982e-06</wgt>
  <wgt id="23">2.81837e-06</wgt>
  <wgt id="24">2.85201e-06</wgt>
  <wgt id="25">2.80842e-06</wgt>
  <wgt id="26">2.82427e-06</wgt>
  <wgt id="27">2.82622e-06</wgt>
  <wgt id="28">2.85174e-06</wgt>
  <wgt id="29">2.81531e-06</wgt>
  <wgt id="30">2.83366e-06</wgt>
  <wgt id="31">2.81346e-06</wgt>
  <wgt id="32">2.83015e-06</wgt>
  <wgt id="33">2.82021e-06</wgt>
  <wgt id="34">2.79664e-06</wgt>
  <wgt id="35">2.87655e-06</wgt>
  <wgt id="36">2.83407e-06</wgt>
  <wgt id="37">2.82047e-06</wgt>
  <wgt id="38">2.81815e-06</wgt>
  <wgt id="39">2.82829e-06</wgt>
  <wgt id="40">2.82552e-06</wgt>
  <wgt id="41">2.82538e-06</wgt>
  <wgt id="42">2.84134e-06</wgt>
  <wgt id="43">2.79198e-06</wgt>
  <wgt id="44">2.83453e-06</wgt>
  <wgt id="45">2.82136e-06</wgt>
  <wgt id="46">2.82287e-06</wgt>
  <wgt id="47">2.82699e-06</wgt>
  <wgt id="48">2.79467e-06</wgt>
  <wgt id="49">2.83961e-06</wgt>
  <wgt id="50">2.81246e-06</wgt>
  <wgt id="51">2.83312e-06</wgt>
  <wgt id="52">2.82489e-06</wgt>
  <wgt id="53">2.8249e-06</wgt>
</rwgt>
</event>
<event>
 12      0 +2.8251000e-06 8.76659800e+02 7.54677100e-03 9.08602400e-02
        2 -1    0    0  501    0 +0.00000000000e+00 +0.00000000000e+00 +1.34858154670e+03  1.34858154670e+03  0.00000000000e+00 0.0000e+00 -1.0000e+00
        2 -1    0    0  503    0 +0.00000000000e+00 +0.00000000000e+00 -1.72148940240e+03  1.72148940240e+03  0.00000000000e+00 0.0000e+00 -1.0000e+00
       24  2    1    2    0    0 +2.02355176265e+02 +7.43578337995e+01 +5.90794377991e+02  6.33797578982e+02  7.86426681187e+01 0.0000e+00 0.0000e+00
        4  1    3    3  504    0 +1.80881339438e+02 +3.51255961477e+01 +4.90538712166e+02  5.24003907042e+02  0.00000000000e+00 0.0000e+00 -1.0000e+00
       -3  1    3    3    0  504 +2.14738368274e+01 +3.92322376518e+01 +1.00255665825e+02  1.09793671940e+02  0.00000000000e+00 0.0000e+00 1.0000e+00
       24  2    1    2    0    0 -8.33406526815e+01 +4.59008603509e+01 -1.06901852701e+03  1.07628480839e+03  8.08444451992e+01 0.0000e+00 0.0000e+00
       16  1    6    6    0    0 -8.26570099745e+00 +4.58549392329e+01 -5.33271408853e+02  5.35303084958e+02  0.00000000000e+00 0.0000e+00 -1.0000e+00
      -15  1    6    6    0    0 -7.50749516840e+01 +4.59211179345e-02 -5.35747118155e+02  5.40981723434e+02  1.77700000000e+00 0.0000e+00 1.0000e+00
        2  1    1    2  501    0 -8.67598523144e+01 +4.98986497247e+01 +3.70581023662e+00  1.00154282222e+02  0.00000000000e+00 0.0000e+00 -1.0000e+00
        1  1    1    2  502    0 +3.04387428025e+00 +2.16973817979e+02 -2.72847852403e+02  3.48615624177e+02  0.00000000000e+00 0.0000e+00 -1.0000e+00
        1  1    1    2  503    0 -2.02693707572e+00 -6.07539718113e+02 +2.84262737133e+02  6.70756230893e+02  0.00000000000e+00 0.0000e+00 -1.0000e+00
       -2  1    1    2    0  502 -3.32716084739e+01 +2.20408556259e+02 +9.01955983503e+01  2.40462424434e+02  0.00000000000e+00 0.0000e+00 1.0000e+00
#  0.1300000e+05  0.1300000e+05  0.4194601e+03  0.1300000e+05  0.1300000e+05  0.4194601e+03
<mgrwt>
<rscale>  3 0.75378924e+03</rscale>
<asrwt>  1 0.94056521e+02</asrwt>
<pdfrwt beam="1">  1        2 0.20747408e+00 0.87665982e+03</pdfrwt>
<pdfrwt beam="2">  1        2 0.26484452e+00 0.47918856e+03</pdfrwt>
<totfact> 0.22318515e-03</totfact>
</mgrwt>
<clustering>
<clus scale="   94.057">  5  8 -1 -1</clus>
<clus scale="  216.965">  4  6 -1 -1</clus>
<clus scale="  479.189">  2  4  1 -1</clus>
<clus scale="  419.460">  2  5  1 -1</clus>
<clus scale="  222.393">  3  7 -1 -1</clus>
<clus scale="  876.660">  1  3  2 -1</clus>
</clustering>
<rwgt>
  <wgt id="1">5.84254e-06</wgt>
  <wgt id="2">3.46548e-06</wgt>
  <wgt id="3">2.22656e-06</wgt>
  <wgt id="4">4.76291e-06</wgt>
  <wgt id="5">2.8251e-06</wgt>
  <wgt id="6">1.81512e-06</wgt>
  <wgt id="7">3.9823e-06</wgt>
  <wgt id="8">2.36208e-06</wgt>
  <wgt id="9">1.51763e-06</wgt>
  <wgt id="10">3.59097e-06</wgt>
  <wgt id="11">2.8251e-06</wgt>
  <wgt id="12">2.33269e-06</wgt>
  <wgt id="13">2.8251e-06</wgt>
  <wgt id="14">2.8282e-06</wgt>
  <wgt id="15">2.82258e-06</wgt>
  <wgt id="16">2.80383e-06</wgt>
  <wgt id="17">2.84895e-06</wgt>
  <wgt id="18">2.81013e-06</wgt>
  <wgt id="19">2.84729e-06</wgt>
  <wgt id="20">2.8196e-06</wgt>
  <wgt id="21">2.82883e-06</wgt>
  <wgt id="22">2.83441e-06</wgt>
  <wgt id="23">2.81188e-06</wgt>
  <wgt id="24">2.87522e-06</wgt>
  <wgt id="25">2.79434e-06</wgt>
  <wgt id="26">2.82626e-06</wgt>
  <wgt id="27">2.82362e-06</wgt>
  <wgt id="28">2.87636e-06</wgt>
  <wgt id="29">2.80653e-06</wgt>
  <wgt id="30">2.83113e-06</wgt>
  <wgt id="31">2.81756e-06</wgt>
  <wgt id="32">2.82426e-06</wgt>
  <wgt id="33">2.82587e-06</wgt>
  <wgt id="34">2.77981e-06</wgt>
  <wgt id="35">2.90921e-06</wgt>
  <wgt id="36">2.84304e-06</wgt>
  <wgt id="37">2.81545e-06</wgt>
  <wgt id="38">2.81512e-06</wgt>
  <wgt id="39">2.83076e-06</wgt>
  <wgt id="40">2.8319e-06</wgt>
  <wgt id="41">2.81837e-06</wgt>
  <wgt id="42">2.85005e-06</wgt>
  <wgt id="43">2.78635e-06</wgt>
  <wgt id="44">2.83021e-06</wgt>
  <wgt id="45">2.82341e-06</wgt>
  <wgt id="46">2.82216e-06</wgt>
  <wgt id="47">2.82682e-06</wgt>
  <wgt id="48">2.83335e-06</wgt>
  <wgt id="49">2.82759e-06</wgt>
  <wgt id="50">2.81831e-06</wgt>
  <wgt id="51">2.8367e-06</wgt>
  <wgt id="52">2.84461e-06</wgt>
  <wgt id="53">2.8204e-06</wgt>
</rwgt>
</event>
<event>
 10      0 +2.8251000e-06 4.37673700e+02 7.54677100e-03 9.70952300e-02
        2 -1    0    0  501    0 +0.00000000000e+00 +0.00000000000e+00 +3.27236158700e+02  3.27236158700e+02  0.00000000000e+00 0.0000e+00 -1.0000e+00
        2 -1    0    0  502    0 +0.00000000000e+00 +0.00000000000e+00 -3.38997354580e+03  3.38997354580e+03  0.00000000000e+00 0.0000e+00 -1.0000e+00
       24  2    1    2    0    0 -3.20644609499e+01 -2.85649201337e+02 -1.26773082085e+02  3.24365395955e+02  8.07335114511e+01 0.0000e+00 0.0000e+00
        2  1    3    3  503    0 -2.45804647088e+01 -4.23169437600e+01 +1.95950970394e+00  4.89771646052e+01  0.00000000000e+00 0.0000e+00 -1.0000e+00
       -1  1    3    3    0  503 -7.48399624111e+00 -2.43332257577e+02 -1.28732591789e+02  2.75388231350e+02  0.00000000000e+00 0.0000e+00 1.0000e+00
       24  2    1    2    0    0 +4.72909834239e+01 +3.48721865884e+02 -8.50352541646e+02  9.24265933873e+02  8.55844295134e+01 0.0000e+00 0.0000e+00
        2  1    6    6  504    0 +5.04330424711e+01 +2.15698811421e+02 -6.18136636333e+02  6.56629553248e+02  0.00000000000e+00 0.0000e+00 -1.0000e+00
       -1  1    6    6    0  504 -3.14205904720e+00 +1.33023054463e+02 -2.32215905313e+02  2.67636380625e+02  0.00000000000e+00 0.0000e+00 1.0000e+00
        1  1    1    2  501    0 +2.02160759044e+01 +4.41306210061e+02 -1.86554959548e+03  1.91714244488e+03  0.00000000000e+00 0.0000e+00 -1.0000e+00
        1  1    1    2  502    0 -3.54425983784e+01 -5.04378874608e+02 -2.20062167890e+02  5.51435929793e+02  0.00000000000e+00 0.0000e+00 -1.0000e+00
#  0.1300000e+05  0.1300000e+05  0.1300000e+05  0.1300000e+05
<mgrwt>
<rscale>  2 0.43134877e+03</rscale>
<asrwt>0</asrwt>
<pdfrwt beam="1">  1        2 0.50344024e-01 0.29854010e+03</pdfrwt>
<pdfrwt beam="2">  1        2 0.52153439e+00 0.31643920e+03</pdfrwt>
<totfact> 0.16322257e-01</totfact>
</mgrwt>
<clustering>
<clus scale="  298.540">  1  3  2 -1</clus>
<clus scale="  316.439">  2  4  1 -1</clus>
<clus scale="  605.356">  2  5  1 -1</clus>
<clus scale="  605.356">  1  3  2 -1</clus>
</clustering>
<rwgt>
  <wgt id="1">5.19445e-06</wgt>
  <wgt id="2">3.56688e-06</wgt>
  <wgt id="3">2.60501e-06</wgt>
  <wgt id="4">4.11419e-06</wgt>
  <wgt id="5">2.8251e-06</wgt>
  <wgt id="6">2.06327e-06</wgt>
  <wgt id="7">3.35854e-06</wgt>
  <wgt id="8">2.30621e-06</wgt>
  <wgt id="9">1.68431e-06</wgt>
  <wgt id="10">2.8251e-06</wgt>
  <wgt id="11">2.8251e-06</wgt>
  <wgt id="12">2.8251e-06</wgt>
  <wgt id="13">2.8251e-06</wgt>
  <wgt id="14">2.82878e-06</wgt>
  <wgt id="15">2.8221e-06</wgt>
  <wgt id="16">2.81117e-06</wgt>
  <wgt id="17">2.84062e-06</wgt>
  <wgt id="18">2.80968e-06</wgt>
  <wgt id="19">2.84807e-06</wgt>
  <wgt id="20">2.81577e-06</wgt>
  <wgt id="21">2.8314e-06</wgt>
  <wgt id="22">2.83387e-06</wgt>
  <wgt id="23">2.81272e-06</wgt>
  <wgt id="24">2.87318e-06</wgt>
  <wgt id="25">2.79563e-06</wgt>
  <wgt id="26">2.82392e-06</wgt>
  <wgt id="27">2.82678e-06</wgt>
  <wgt id="28">2.83211e-06</wgt>
  <wgt id="29">2.82214e-06</wgt>
  <wgt id="30">2.82554e-06</wgt>
  <wgt id="31">2.82434e-06</wgt>
  <wgt id="32">2.81572e-06</wgt>
  <wgt id="33">2.83407e-06</wgt>
  <wgt id="34">2.79037e-06</wgt>
  <wgt id="35">2.88866e-06</wgt>
  <wgt id="36">2.84359e-06</wgt>
  <wgt id="37">2.8155e-06</wgt>
  <wgt id="38">2.81646e-06</wgt>
  <wgt id="39">2.82955e-06</wgt>
  <wgt id="40">2.8452e-06</wgt>
  <wgt id="41">2.8051e-06</wgt>
  <wgt id="42">2.84309e-06</wgt>
  <wgt id="43">2.79299e-06</wgt>
  <wgt id="44">2.83714e-06</wgt>
  <wgt id="45">2.82032e-06</wgt>
  <wgt id="46">2.82537e-06</wgt>
  <wgt id="47">2.8253e-06</wgt>
  <wgt id="48">2.81097e-06</wgt>
  <wgt id="49">2.83792e-06</wgt>
  <wgt id="50">2.81311e-06</wgt>
  <wgt id="51">2.84087e-06</wgt>
  <wgt id="52">2.82864e-06</wgt>
  <wgt id="53">2.82458e-06</wgt>
</rwgt>
</event>
<event>
 11      0 +2.8251000e-06 2.15815700e+02 7.54677100e-03 1.08213500e-01
        2 -1    0    0  502    0 +0.00000000000e+00 +0.00000000000e+00 +1.48167109450e+03  1.48167109450e+03  0.00000000000e+00 0.0000e+00 -1.0000e+00
       21 -1    0    0  501  503 +0.00000000000e+00 +0.00000000000e+00 -1.21892341110e+02  1.21892341110e+02  0.00000000000e+00 0.0000e+00 -1.0000e+00
       24  2    1    2    0    0 +1.70357792336e+01 +6.58241460369e+01 +8.68741818876e+02  8.74945763088e+02  7.87064451334e+01 0.0000e+00 0.0000e+00
        2  1    3    3  504    0 +3.79537879762e+01 +6.05431687189e+01 +7.92361633791e+02  7.95577101232e+02  0.00000000000e+00 0.0000e+00 -1.0000e+00
       -1  1    3    3    0  504 -2.09180087427e+01 +5.28097731803e+00 +7.63801850849e+01  7.93686618559e+01  0.00000000000e+00 0.0000e+00 1.0000e+00
       24  2    1    2    0    0 -7.46188396805e+01 +7.28770236377e+01 +2.05721601154e+02  2.43917941634e+02  7.93445225585e+01 0.0000e+00 0.0000e+00
        2  1    6    6  505    0 -4.97090590490e+01 +4.91594330220e+01 +5.39771750540e+01  8.83242652582e+01  0.00000000000e+00 0.0000e+00 -1.0000e+00
       -1  1    6    6    0  505 -2.49097806315e+01 +2.37175906157e+01 +1.51744426100e+02  1.55593676376e+02  0.00000000000e+00 0.0000e+00 1.0000e+00
        1  1    1    2  501    0 +8.80363940525e+01 -4.54995053379e+01 +3.26577060109e+02  3.41281684028e+02  0.00000000000e+00 0.0000e+00 -1.0000e+00
        1  1    1    2  502    0 -3.30326033970e+01 -5.30449088853e+01 +2.38413345183e+01  6.68829161853e+01  0.00000000000e+00 0.0000e+00 -1.0000e+00
       -2  1    1    2    0  503 +2.57926979151e+00 -4.01567554515e+01 -6.51030612672e+01  7.65351306748e+01  0.00000000000e+00 0.0000e+00 1.0000e+00
#  0.1300000e+05  0.1300000e+05  0.1300000e+05  0.1300000e+05  0.4023950e+02
<mgrwt>
<rscale>  2 0.18752170e+03</rscale>
<asrwt>  1 0.40239503e+02</asrwt>
<pdfrwt beam="1">  2       21        2 0.18752668e-01 0.77850777e-02 0.40239503e+02 0.21581575e+03</pdfrwt>
<pdfrwt beam="2">  1        2 0.22794940e+00 0.21581575e+03</pdfrwt>
<totfact> 0.93886057e+00</totfact>
</mgrwt>
<clustering>
<clus scale="   40.240">  2  7  1 -1</clus>
<clus scale="  101.207">  3  5 -1 -1</clus>
<clus scale="  123.015">  2  4  1 -1</clus>
<clus scale="   87.222">  2  6  1 -1</clus>
<clus scale="  215.816">  2  3  1 -1</clus>
</clustering>
<rwgt>
  <wgt id="1">4.36101e-06</wgt>
  <wgt id="2">2.84806e-06</wgt>
  <wgt id="3">2.01013e-06</wgt>
  <wgt id="4">4.32586e-06</wgt>
  <wgt id="5">2.8251e-06</wgt>
  <wgt id="6">1.99393e-06</wgt>
  <wgt id="7">4.2204e-06</wgt>
  <wgt id="8">2.75623e-06</wgt>
  <wgt id="9">1.94532e-06</wgt>
  <wgt id="10">3.75357e-06</wgt>
  <wgt id="11">2.8251e-06</wgt>
  <wgt id="12">2.27071e-06</wgt>
  <wgt id="13">2.8251e-06</wgt>
  <wgt id="14">2.83174e-06</wgt>
  <wgt id="15">2.81953e-06</wgt>
  <wgt id="16">2.81577e-06</wgt>
  <wgt id="17">2.83538e-06</wgt>
  <wgt id="18">2.81988e-06</wgt>
  <wgt id="19">2.83274e-06</wgt>
  <wgt id="20">2.82313e-06</wgt>
  <wgt id="21">2.82637e-06</wgt>
  <wgt id="22">2.82673e-06</wgt>
  <wgt id="23">2.82262e-06</wgt>
  <wgt id="24">2.83279e-06</wgt>
  <wgt id="25">2.82008e-06</wgt>
  <wgt id="26">2.83022e-06</wgt>
  <wgt id="27">2.818e-06</wgt>
  <wgt id="28">2.84651e-06</wgt>
  <wgt id="29">2.81719e-06</wgt>
  <wgt id="30">2.83975e-06</wgt>
  <wgt id="31">2.80448e-06</wgt>
  <wgt id="32">2.82059e-06</wgt>
  <wgt id="33">2.82924e-06</wgt>
  <wgt id="34">2.80097e-06</wgt>
  <wgt id="35">2.86851e-06</wgt>
  <wgt id="36">2.8404e-06</wgt>
  <wgt id="37">2.81619e-06</wgt>
  <wgt id="38">2.82389e-06</wgt>
  <wgt id="39">2.82589e-06</wgt>
  <wgt id="40">2.82737e-06</wgt>
  <wgt id="41">2.82372e-06</wgt>
  <wgt id="42">2.82646e-06</wgt>
  <wgt id="43">2.825e-06</wgt>
  <wgt id="44">2.82826e-06</wgt>
  <wgt id="45">2.82396e-06</wgt>
  <wgt id="46">2.82731e-06</wgt>
  <wgt id="47">2.82361e-06</wgt>
  <wgt id="48">2.82272e-06</wgt>
  <wgt id="49">2.82954e-06</wgt>
  <wgt id="50">2.8299e-06</wgt>
  <wgt id="51">2.80467e-06</wgt>
  <wgt id="52">2.83003e-06</wgt>
  <wgt id="53">2.82393e-06</wgt>
</rwgt>
</event>
<event>
 10      0 +2.8251000e-06 1.86724100e+02 7.54677100e-03 1.08969600e-01
        2 -1    0    0  501    0 +0.00000000000e+00 +0.00000000000e+00 +2.13776869000e+03  2.13776869000e+03  0.00000000000e+00 0.0000e+00 -1.0000e+00
        2 -1    0    0  502    0 +0.00000000000e+00 +0.00000000000e+00 -2.04181669220e+02  2.04181669220e+02  0.00000000000e+00 0.0000e+00 -1.0000e+00
       24  2    1    2    0    0 +3.98530983582e+01 +1.90352625053e+01 +3.73892879412e+02  3.81377197370e+02  6.08446442304e+01 0.0000e+00 0.0000e+00
        4  1    3    3  503    0 +4.68164615961e+01 -7.58254000682e+00 +2.51108396323e+02  2.55547848149e+02  0.00000000000e+00 0.0000e+00 -1.0000e+00
       -3  1    3    3    0  503 -6.96336323784e+00 +2.66178025121e+01 +1.22784483089e+02  1.25829349221e+02  0.00000000000e+00 0.0000e+00 1.0000e+00
       24  2    1    2    0    0 -4.08992199169e+01 +5.65247896900e+01 +1.24433436318e+02  1.63050461088e+02  7.89555238585e+01 0.0000e+00 0.0000e+00
       12  1    6    6    0    0 -6.00286063117e+01 +4.49931743651e+01 +1.17961633141e+02  1.39795444162e+02  0.00000000000e+00 0.0000e+00 -1.0000e+00
      -11  1    6    6    0    0 +1.91293863948e+01 +1.15316153249e+01 +6.47180317632e+00  2.32550169253e+01  0.00000000000e+00 0.0000e+00 1.0000e+00
        1  1    1    2  501    0 +2.32920708270e+02 +2.12527574083e+02 -7.75467287173e-02  3.15309422790e+02  0.00000000000e+00 0.0000e+00 -1.0000e+00
        1  1    1    2  502    0 -2.31874586711e+02 -2.88087626278e+02 +1.43533825178e+03  1.48221327797e+03  0.00000000000e+00 0.0000e+00 -1.0000e+00
#  0.1300000e+05  0.1300000e+05  0.1300000e+05  0.1300000e+05
<mgrwt>
<rscale>  2 0.17832596e+03</rscale>
<asrwt>0</asrwt>
<pdfrwt beam="1">  1        2 0.32888749e+00 0.87270960e+02</pdfrwt>
<pdfrwt beam="2">  1        2 0.31412564e-01 0.10490904e+03</pdfrwt>
<totfact> 0.21749394e+00</totfact>
</mgrwt>
<clustering>
<clus scale="   87.271">  1  3  2 -1</clus>
<clus scale="  104.909">  2  4  1 -1</clus>
<clus scale="  332.344">  1  6  2 -1</clus>
<clus scale="  332.344">  1  3  2 -1</clus>
</clustering>
<rwgt>
  <wgt id="1">4.99895e-06</wgt>
  <wgt id="2">3.25339e-06</wgt>
  <wgt id="3">2.29088e-06</wgt>
  <wgt id="4">4.34086e-06</wgt>
  <wgt id="5">2.8251e-06</wgt>
  <wgt id="6">1.9893e-06</wgt>
  <wgt id="7">3.8164e-06</wgt>
  <wgt id="8">2.48377e-06</wgt>
  <wgt id="9">1.74895e-06</wgt>
  <wgt id="10">2.8251e-06</wgt>
  <wgt id="11">2.8251e-06</wgt>
  <wgt id="12">2.8251e-06</wgt>
  <wgt id="13">2.8251e-06</wgt>
  <wgt id="14">2.82874e-06</wgt>
  <wgt id="15">2.82216e-06</wgt>
  <wgt id="16">2.81853e-06</wgt>
  <wgt id="17">2.83229e-06</wgt>
  <wgt id="18">2.81245e-06</wgt>
  <wgt id="19">2.84394e-06</wgt>
  <wgt id="20">2.82013e-06</wgt>
  <wgt id="21">2.82849e-06</wgt>
  <wgt id="22">2.83232e-06</wgt>
  <wgt id="23">2.81496e-06</wgt>
  <wgt id="24">2.8642e-06</wgt>
  <wgt id="25">2.80109e-06</wgt>
  <wgt id="26">2.82529e-06</wgt>
  <wgt id="27">2.82492e-06</wgt>
  <wgt id="28">2.8532e-06</wgt>
  <wgt id="29">2.81476e-06</wgt>
  <wgt id="30">2.83226e-06</wgt>
  <wgt id="31">2.81578e-06</wgt>
  <wgt id="32">2.82546e-06</wgt>
  <wgt id="33">2.8248e-06</wgt>
  <wgt id="34">2.78851e-06</wgt>
  <wgt id="35">2.89206e-06</wgt>
  <wgt id="36">2.82674e-06</wgt>
  <wgt id="37">2.82557e-06</wgt>
  <wgt id="38">2.82031e-06</wgt>
  <wgt id="39">2.82802e-06</wgt>
  <wgt id="40">2.83259e-06</wgt>
  <wgt id="41">2.81793e-06</wgt>
  <wgt id="42">2.84393e-06</wgt>
  <wgt id="43">2.79051e-06</wgt>
  <wgt id="44">2.83311e-06</wgt>
  <wgt id="45">2.82199e-06</wgt>
  <wgt id="46">2.82151e-06</wgt>
  <wgt id="47">2.82763e-06</wgt>
  <wgt id="48">2.81153e-06</wgt>
  <wgt id="49">2.83509e-06</wgt>
  <wgt id="50">2.81626e-06</wgt>
  <wgt id="51">2.83285e-06</wgt>
  <wgt id="52">2.83155e-06</wgt>
  <wgt id="53">2.8236e-06</wgt>
</rwgt>
</event>
<event>
 12      0 +2.8251000e-06 4.03734700e+02 7.54677100e-03 9.96796600e-02
       -3 -1    0    0    0  501 +0.00000000000e+00 +0.00000000000e+00 +1.38355653690e+03  1.38355653690e+03  0.00000000000e+00 0.0000e+00 1.0000e+00
        2 -1    0    0  503    0 +0.00000000000e+00 +0.00000000000e+00 -2.65487261030e+02  2.65487261030e+02  0.00000000000e+00 0.0000e+00 -1.0000e+00
       24  2    1    2    0    0 -8.07583463239e+00 +1.71243945748e+01 +6.98995133169e+02  7.03983436066e+02  8.14863060062e+01 0.0000e+00 0.0000e+00
        2  1    3    3  505    0 -6.77750178266e+00 +3.88640249431e+01 +6.37970898777e+02  6.39189498233e+02  0.00000000000e+00 0.0000e+00 -1.0000e+00
       -1  1    3    3    0  505 -1.29833284973e+00 -2.17396303683e+01 +6.10242343922e+01  6.47939378329e+01  0.00000000000e+00 0.0000e+00 1.0000e+00
       24  2    1    2    0    0 -7.66812499425e+00 -3.59788096747e+01 -2.25248734761e+01  1.16732105876e+02  1.08469994610e+02 0.0000e+00 0.0000e+00
       12  1    6    6    0    0 +3.67404853117e+01 -4.59784397528e+01 +1.14150543926e+01  5.99515108219e+01  0.00000000000e+00 0.0000e+00 -1.0000e+00
      -11  1    6    6    0    0 -4.44086103060e+01 +9.99963007806e+00 -3.39399278687e+01  5.67805950545e+01  0.00000000000e+00 0.0000e+00 1.0000e+00
       21  1    1    2  503  504 +3.74892126699e+01 -1.45642825285e+01 -1.66232652198e+02  1.71028810582e+02  0.00000000000e+00 0.0000e+00 -1.0000e+00
       21  1    1    2  504  501 +2.32754801832e+01 -3.72454001471e+01 +2.35472437328e+01  4.98341298438e+01  0.00000000000e+00 0.0000e+00 1.0000e+00
        1  1    1    2  502    0 +2.21350729572e+00 +2.58630961649e+01 +7.50125647907e+00  2.70197743615e+01  0.00000000000e+00 0.0000e+00 -1.0000e+00
       -4  1    1    2    0  502 -4.72342405222e+01 +4.48010016106e+01 +5.76783168163e+02  5.80445541200e+02  0.00000000000e+00 0.0000e+00 1.0000e+00
#  0.1300000e+05  0.1300000e+05  0.4021889e+02  0.4840242e+02  0.1300000e+05  0.1300000e+05
<mgrwt>
<rscale>  2 0.34946063e+03</rscale>
<asrwt>  2 0.40218893e+02 0.48402422e+02</asrwt>
<pdfrwt beam="1">  3        2        2        2 0.40844194e-01 0.14830210e-01 0.12337813e-01 0.40218893e+02 0.48402422e+02 0.40373465e+03</pdfrwt>
<pdfrwt beam="2">  1       -3 0.21285485e+00 0.40373465e+03</pdfrwt>
<totfact> 0.20250682e-03</totfact>
</mgrwt>
<clustering>
<clus scale="   40.219">  2  5  1 -1</clus>
<clus scale="   40.704">  3  7 -1 -1</clus>
<clus scale="   48.402">  2  6  1 -1</clus>
<clus scale="   64.628">  4  8 -1 -1</clus>
<clus scale="  226.623">  2  3  1 -1</clus>
<clus scale="  403.735">  2  3  1 -1</clus>
</clustering>
<rwgt>
  <wgt id="1">4.35344e-06</wgt>
  <wgt id="2">2.95549e-06</wgt>
  <wgt id="3">2.14131e-06</wgt>
  <wgt id="4">4.16138e-06</wgt>
  <wgt id="5">2.8251e-06</wgt>
  <wgt id="6">2.04684e-06</wgt>
  <wgt id="7">3.9351e-06</wgt>
  <wgt id="8">2.67149e-06</wgt>
  <wgt id="9">1.93554e-06</wgt>
  <wgt id="10">4.93298e-06</wgt>
  <wgt id="11">2.8251e-06</wgt>
  <wgt id="12">1.83698e-06</wgt>
  <wgt id="13">2.8251e-06</wgt>
  <wgt id="14">2.83551e-06</wgt>
  <wgt id="15">2.81643e-06</wgt>
  <wgt id="16">2.78801e-06</wgt>
  <wgt id="17">2.86639e-06</wgt>
  <wgt id="18">2.86746e-06</wgt>
  <wgt id="19">2.76171e-06</wgt>
  <wgt id="20">2.78236e-06</wgt>
  <wgt id="21">2.85376e-06</wgt>
  <wgt id="22">2.89357e-06</wgt>
  <wgt id="23">2.72771e-06</wgt>
  <wgt id="24">2.74506e-06</wgt>
  <wgt id="25">2.87381e-06</wgt>
  <wgt id="26">2.81741e-06</wgt>
  <wgt id="27">2.83541e-06</wgt>
  <wgt id="28">2.8374e-06</wgt>
  <wgt id="29">2.82053e-06</wgt>
  <wgt id="30">2.78567e-06</wgt>
  <wgt id="31">2.87631e-06</wgt>
  <wgt id="32">2.82434e-06</wgt>
  <wgt id="33">2.82597e-06</wgt>
  <wgt id="34">2.86779e-06</wgt>
  <wgt id="35">2.76415e-06</wgt>
  <wgt id="36">2.76635e-06</wgt>
  <wgt id="37">2.86403e-06</wgt>
  <wgt id="38">2.74378e-06</wgt>
  <wgt id="39">2.86376e-06</wgt>
  <wgt id="40">2.81931e-06</wgt>
  <wgt id="41">2.83493e-06</wgt>
  <wgt id="42">2.78571e-06</wgt>
  <wgt id="43">2.87831e-06</wgt>
  <wgt id="44">2.90945e-06</wgt>
  <wgt id="45">2.79367e-06</wgt>
  <wgt id="46">2.67245e-06</wgt>
  <wgt id="47">2.93053e-06</wgt>
  <wgt id="48">2.78713e-06</wgt>
  <wgt id="49">2.8454e-06</wgt>
  <wgt id="50">2.79559e-06</wgt>
  <wgt id="51">2.88509e-06</wgt>
  <wgt id="52">2.91868e-06</wgt>
  <wgt id="53">2.6667e-06</wgt>
</rwgt>
</event>
<event>
 10      0 +2.8251000e-06 1.73558000e+02 7.54677100e-03 1.12102800e-01
        2 -1    0    0  502    0 +0.00000000000e+00 +0.00000000000e+00 +1.99474517440e+03  1.99474517440e+03  0.00000000000e+00 0.0000e+00 -1.0000e+00
        2 -1    0    0  501    0 +0.00000000000e+00 +0.00000000000e+00 -5.91333352600e+01  5.91333352600e+01  0.00000000000e+00 0.0000e+00 -1.0000e+00
       24  2    1    2    0    0 +1.50078303187e+02 +4.71131628328e+01 +2.86967849344e+02  3.37161864414e+02  8.11444949351e+01 0.0000e+00 0.0000e+00
        2  1    3    3  503    0 +9.32279562002e+01 +4.64129203302e+01 +1.10859041608e+02  1.52103050913e+02  0.00000000000e+00 0.0000e+00 -1.0000e+00
       -1  1    3    3    0  503 +5.68503469871e+01 +7.00242502550e-01 +1.76108807736e+02  1.85058813501e+02  0.00000000000e+00 0.0000e+00 1.0000e+00
       24  2    1    2    0    0 -2.98400130795e+01 -1.31962743160e-01 +2.92139394013e+02  3.04431015217e+02  8.02643986898e+01 0.0000e+00 0.0000e+00
        4  1    6    6  504    0 +5.93893956920e+00 +1.62353728402e+01 +2.31507371947e+02  2.32151936456e+02  0.00000000000e+00 0.0000e+00 -1.0000e+00
       -3  1    6    6    0  504 -3.57789526487e+01 -1.63673355833e+01 +6.06320220662e+01  7.22790787612e+01  0.00000000000e+00 0.0000e+00 1.0000e+00
        1  1    1    2  501    0 +4.54683839658e+01 -1.70314307873e+02 +7.86309636882e+02  8.05827017703e+02  0.00000000000e+00 0.0000e+00 -1.0000e+00
        1  1    1    2  502    0 -1.65706674074e+02 +1.23333107784e+02 +5.70194958902e+02  6.06458612326e+02  0.00000000000e+00 0.0000e+00 -1.0000e+00
#  0.1300000e+05  0.1300000e+05  0.1300000e+05  0.1300000e+05
<mgrwt>
<rscale>  2 0.14580518e+03</rscale>
<asrwt>0</asrwt>
<pdfrwt beam="1">  1        2 0.30688387e+00 0.85776181e+02</pdfrwt>
<pdfrwt beam="2">  1        2 0.90974362e-02 0.17220795e+03</pdfrwt>
<totfact> 0.11902039e+01</totfact>
</mgrwt>
<clustering>
<clus scale="   85.776">  1  4  2 -1</clus>
<clus scale="  172.208">  2  3  1 -1</clus>
<clus scale="  174.919">  2  6  1 -1</clus>
<clus scale="  174.919">  1  3  2 -1</clus>
</clustering>
<rwgt>
  <wgt id="1">4.7214e-06</wgt>
  <wgt id="2">3.02783e-06</wgt>
  <wgt id="3">2.11177e-06</wgt>
  <wgt id="4">4.40528e-06</wgt>
  <wgt id="5">2.8251e-06</wgt>
  <wgt id="6">1.97038e-06</wgt>
  <wgt id="7">4.09609e-06</wgt>
  <wgt id="8">2.62682e-06</wgt>
  <wgt id="9">1.83208e-06</wgt>
  <wgt id="10">2.8251e-06</wgt>
  <wgt id="11">2.8251e-06</wgt>
  <wgt id="12">2.8251e-06</wgt>
  <wgt id="13">2.8251e-06</wgt>
  <wgt id="14">2.8285e-06</wgt>
  <wgt id="15">2.8223e-06</wgt>
  <wgt id="16">2.82176e-06</wgt>
  <wgt id="17">2.8287e-06</wgt>
  <wgt id="18">2.815e-06</wgt>
  <wgt id="19">2.8401e-06</wgt>
  <wgt id="20">2.82446e-06</wgt>
  <wgt id="21">2.82554e-06</wgt>
  <wgt id="22">2.83027e-06</wgt>
  <wgt id="23">2.8177e-06</wgt>
  <wgt id="24">2.85255e-06</wgt>
  <wgt id="25">2.80814e-06</wgt>
  <wgt id="26">2.82768e-06</wgt>
  <wgt id="27">2.82161e-06</wgt>
  <wgt id="28">2.84285e-06</wgt>
  <wgt id="29">2.81852e-06</wgt>
  <wgt id="30">2.83638e-06</wgt>
  <wgt id="31">2.80795e-06</wgt>
  <wgt id="32">2.82475e-06</wgt>
  <wgt id="33">2.82541e-06</wgt>
  <wgt id="34">2.78805e-06</wgt>
  <wgt id="35">2.8918e-06</wgt>
  <wgt id="36">2.8327e-06</wgt>
  <wgt id="37">2.82092e-06</wgt>
  <wgt id="38">2.82246e-06</wgt>
  <wgt id="39">2.82679e-06</wgt>
  <wgt id="40">2.83258e-06</wgt>
  <wgt id="41">2.81913e-06</wgt>
  <wgt id="42">2.83679e-06</wgt>
  <wgt id="43">2.80259e-06</wgt>
  <wgt id="44">2.82994e-06</wgt>
  <wgt id="45">2.82331e-06</wgt>
  <wgt id="46">2.8189e-06</wgt>
  <wgt id="47">2.82909e-06</wgt>
  <wgt id="48">2.82239e-06</wgt>
  <wgt id="49">2.82949e-06</wgt>
  <wgt id="50">2.81262e-06</wgt>
  <wgt id="51">2.82838e-06</wgt>
  <wgt id="52">2.83364e-06</wgt>
  <wgt id="53">2.82308e-06</wgt>
</rwgt>
</event>
<event>
 10      0 +2.8251000e-06 2.61379700e+02 7.54677100e-03 1.04043600e-01
        2 -1    0    0  502    0 +0.00000000000e+00 +0.00000000000e+00 +7.89638730050e+02  7.89638730050e+02  0.00000000000e+00 0.0000e+00 -1.0000e+00
        2 -1    0    0  501    0 +0.00000000000e+00 +0.00000000000e+00 -8.01988533220e+01  8.01988533220e+01  0.00000000000e+00 0.0000e+00 -1.0000e+00
       24  2    1    2    0    0 -6.74820594239e+01 -7.52630884170e+01 +7.81178498932e+01  1.51055906997e+02  8.06047625423e+01 0.0000e+00 0.0000e+00
       14  1    3    3    0    0 -2.33293191945e+00 +1.41567936700e+01 -1.95960765230e+00  1.44809336890e+01  0.00000000000e+00 0.0000e+00 -1.0000e+00
      -13  1    3    3    0    0 -6.51491275044e+01 -8.94198820870e+01 +8.00774575455e+01  1.36574973308e+02  0.00000000000e+00 0.0000e+00 1.0000e+00
       24  2    1    2    0    0 -8.53162629849e+01 +8.01306173782e+01 +3.45652959590e+02  3.73652064650e+02  8.02503356529e+01 0.0000e+00 0.0000e+00
        4  1    6    6  503    0 -6.77850609142e+01 +7.16728020265e+01 +3.39030854015e+02  3.53091666579e+02  0.00000000000e+00 0.0000e+00 -1.0000e+00
       -3  1    6    6    0  503 -1.75312020707e+01 +8.45781535172e+00 +6.62210557506e+00  2.05603980705e+01  0.00000000000e+00 0.0000e+00 1.0000e+00
        1  1    1    2  501    0 +9.74950484246e+01 +5.49804404650e+01 +1.56563669223e+02  1.92458608073e+02  0.00000000000e+00 0.0000e+00 -1.0000e+00
        1  1    1    2  502    0 +5.53032739842e+01 -5.98479694262e+01 +1.29105398022e+02  1.52671003652e+02  0.00000000000e+00 0.0000e+00 -1.0000e+00
#  0.1300000e+05  0.1300000e+05  0.1300000e+05  0.1300000e+05
<mgrwt>
<rscale>  2 0.25090621e+03</rscale>
<asrwt>0</asrwt>
<pdfrwt beam="1">  1        2 0.12148288e+00 0.26137971e+03</pdfrwt>
<pdfrwt beam="2">  1        2 0.12338285e-01 0.22193717e+03</pdfrwt>
<totfact> 0.30194613e+01</totfact>
</mgrwt>
<clustering>
<clus scale="   81.437">  3  6 -1 -1</clus>
<clus scale="  111.990">  4  5 -1 -1</clus>
<clus scale="  221.937">  2  3  1 -1</clus>
<clus scale="  261.380">  1  3  2 -1</clus>
</clustering>
<rwgt>
  <wgt id="1">4.1331e-06</wgt>
  <wgt id="2">2.7512e-06</wgt>
  <wgt id="3">1.96673e-06</wgt>
  <wgt id="4">4.24411e-06</wgt>
  <wgt id="5">2.8251e-06</wgt>
  <wgt id="6">2.01955e-06</wgt>
  <wgt id="7">4.2645e-06</wgt>
  <wgt id="8">2.83867e-06</wgt>
  <wgt id="9">2.02925e-06</wgt>
  <wgt id="10">2.8251e-06</wgt>
  <wgt id="11">2.8251e-06</wgt>
  <wgt id="12">2.8251e-06</wgt>
  <wgt id="13">2.8251e-06</wgt>
  <wgt id="14">2.82862e-06</wgt>
  <wgt id="15">2.82213e-06</wgt>
  <wgt id="16">2.82977e-06</wgt>
  <wgt id="17">2.81966e-06</wgt>
  <wgt id="18">2.81584e-06</wgt>
  <wgt id="19">2.83874e-06</wgt>
  <wgt id="20">2.81845e-06</wgt>
  <wgt id="21">2.82951e-06</wgt>
  <wgt id="22">2.82907e-06</wgt>
  <wgt id="23">2.81937e-06</wgt>
  <wgt id="24">2.84752e-06</wgt>
  <wgt id="25">2.81114e-06</wgt>
  <wgt id="26">2.82565e-06</wgt>
  <wgt id="27">2.82428e-06</wgt>
  <wgt id="28">2.84705e-06</wgt>
  <wgt id="29">2.81701e-06</wgt>
  <wgt id="30">2.83589e-06</wgt>
  <wgt id="31">2.80952e-06</wgt>
  <wgt id="32">2.8291e-06</wgt>
  <wgt id="33">2.82123e-06</wgt>
  <wgt id="34">2.79576e-06</wgt>
  <wgt id="35">2.87775e-06</wgt>
  <wgt id="36">2.83822e-06</wgt>
  <wgt id="37">2.81733e-06</wgt>
  <wgt id="38">2.81879e-06</wgt>
  <wgt id="39">2.82797e-06</wgt>
  <wgt id="40">2.8262e-06</wgt>
  <wgt id="41">2.82526e-06</wgt>
  <wgt id="42">2.83799e-06</wgt>
  <wgt id="43">2.7983e-06</wgt>
  <wgt id="44">2.83249e-06</wgt>
  <wgt id="45">2.82215e-06</wgt>
  <wgt id="46">2.82133e-06</wgt>
  <wgt id="47">2.82782e-06</wgt>
  <wgt id="48">2.80364e-06</wgt>
  <wgt id="49">2.83557e-06</wgt>
  <wgt id="50">2.81088e-06</wgt>
  <wgt id="51">2.83084e-06</wgt>
  <wgt id="52">2.82754e-06</wgt>
  <wgt id="53">2.82423e-06</wgt>
</rwgt>
</event>
<event>
 10      0 +2.8251000e-06 2.44734900e+02 7.54677100e-03 1.07419700e-01
        2 -1    0    0  501    0 +0.00000000000e+00 +0.00000000000e+00 +2.46047042110e+03  2.46047042110e+03  0.00000000000e+00 0.0000e+00 -1.0000e+00
        2 -1    0    0  502    0 +0.00000000000e+00 +0.00000000000e+00 -3.01607740060e+01  3.01607740060e+01  0.00000000000e+00 0.0000e+00 -1.0000e+00
       24  2    1    2    0    0 +7.47237022727e+01 +5.12871183847e+01 +2.79921723471e+02  3.04935285805e+02  8.00959241426e+01 0.0000e+00 0.0000e+00
        2  1    3    3  503    0 +5.54136883158e+01 +4.09775560395e+01 +2.73605982942e+02  2.82152566626e+02  0.00000000000e+00 0.0000e+00 -1.0000e+00
       -1  1    3    3    0  503 +1.93100139569e+01 +1.03095623452e+01 +6.31574052902e+00  2.27827191791e+01  0.00000000000e+00 0.0000e+00 1.0000e+00
       24  2    1    2    0    0 -6.42428559748e+01 +1.20487878938e+01 +9.23631509245e+02  9.29590963155e+02  8.22914094969e+01 0.0000e+00 0.0000e+00
        4  1    6    6  504    0 -4.90709932820e+01 -3.15220927735e+01 +4.64521973408e+02  4.68169059735e+02  0.00000000000e+00 0.0000e+00 -1.0000e+00
       -3  1    6    6    0  504 -1.51718626928e+01 +4.35708806672e+01 +4.59109535837e+02  4.61421903420e+02  0.00000000000e+00 0.0000e+00 1.0000e+00
        1  1    1    2  501    0 +4.49191145752e+01 +5.42083806683e+01 +9.23509936352e+02  9.26189439548e+02  0.00000000000e+00 0.0000e+00 -1.0000e+00
        1  1    1    2  502    0 -5.53999608731e+01 -1.17544286947e+02 +3.03246478026e+02  3.29915506598e+02  0.00000000000e+00 0.0000e+00 -1.0000e+00
#  0.1300000e+05  0.1300000e+05  0.1300000e+05  0.1300000e+05
<mgrwt>
<rscale>  2 0.19785488e+03</rscale>
<asrwt>0</asrwt>
<pdfrwt beam="1">  1        2 0.37853391e+00 0.10454405e+03</pdfrwt>
<pdfrwt beam="2">  1        2 0.46401191e-02 0.24473491e+03</pdfrwt>
<totfact> 0.14948236e+01</totfact>
</mgrwt>
<clustering>
<clus scale="   70.825">  3  5 -1 -1</clus>
<clus scale="  104.544">  1  4  2 -1</clus>
<clus scale="  133.949">  1  6  2 -1</clus>
<clus scale="  244.735">  1  3  2 -1</clus>
</clustering>
<rwgt>
  <wgt id="1">4.65237e-06</wgt>
  <wgt id="2">3.04939e-06</wgt>
  <wgt id="3">2.15746e-06</wgt>
  <wgt id="4">4.31019e-06</wgt>
  <wgt id="5">2.8251e-06</wgt>
  <wgt id="6">1.99878e-06</wgt>
  <wgt id="7">3.98847e-06</wgt>
  <wgt id="8">2.61423e-06</wgt>
  <wgt id="9">1.84959e-06</wgt>
  <wgt id="10">2.8251e-06</wgt>
  <wgt id="11">2.8251e-06</wgt>
  <wgt id="12">2.8251e-06</wgt>
  <wgt id="13">2.8251e-06</wgt>
  <wgt id="14">2.82724e-06</wgt>
  <wgt id="15">2.82369e-06</wgt>
  <wgt id="16">2.81976e-06</wgt>
  <wgt id="17">2.83117e-06</wgt>
  <wgt id="18">2.81549e-06</wgt>
  <wgt id="19">2.83959e-06</wgt>
  <wgt id="20">2.82511e-06</wgt>
  <wgt id="21">2.82517e-06</wgt>
  <wgt id="22">2.82975e-06</wgt>
  <wgt id="23">2.81854e-06</wgt>
  <wgt id="24">2.84912e-06</wgt>
  <wgt id="25">2.8103e-06</wgt>
  <wgt id="26">2.82908e-06</wgt>
  <wgt id="27">2.81985e-06</wgt>
  <wgt id="28">2.83283e-06</wgt>
  <wgt id="29">2.82215e-06</wgt>
  <wgt id="30">2.83203e-06</wgt>
  <wgt id="31">2.81055e-06</wgt>
  <wgt id="32">2.82198e-06</wgt>
  <wgt id="33">2.82827e-06</wgt>
  <wgt id="34">2.78519e-06</wgt>
  <wgt id="35">2.89657e-06</wgt>
  <wgt id="36">2.83802e-06</wgt>
  <wgt id="37">2.81803e-06</wgt>
  <wgt id="38">2.8238e-06</wgt>
  <wgt id="39">2.82646e-06</wgt>
  <wgt id="40">2.83803e-06</wgt>
  <wgt id="41">2.81487e-06</wgt>
  <wgt id="42">2.83432e-06</wgt>
  <wgt id="43">2.80854e-06</wgt>
  <wgt id="44">2.83092e-06</wgt>
  <wgt id="45">2.82303e-06</wgt>
  <wgt id="46">2.81962e-06</wgt>
  <wgt id="47">2.82873e-06</wgt>
  <wgt id="48">2.83021e-06</wgt>
  <wgt id="49">2.82664e-06</wgt>
  <wgt id="50">2.81355e-06</wgt>
  <wgt id="51">2.82809e-06</wgt>
  <wgt id="52">2.83461e-06</wgt>
  <wgt id="53">2.82305e-06</wgt>
</rwgt>
</event>
<event>
 11      0 +2.8251000e-06 2.57705600e+02 7.54677100e-03 1.03890400e-01
       -1 -1    0    0    0  501 +0.00000000000e+00 +0.00000000000e+00 +2.11502325400e+03  2.11502325400e+03  0.00000000000e+00 0.0000e+00 1.0000e+00
        2 -1    0    0  503    0 +0.00000000000e+00 +0.00000000000e+00 -1.52604680220e+03  1.52604680220e+03  0.00000000000e+00 0.0000e+00 -1.0000e+00
       24  2    1    2    0    0 -3.23991525583e+01 +1.15083397681e+02 +2.88133523732e+02  3.22760597687e+02  8.28225960298e+01 0.0000e+00 0.0000e+00
       14  1    3    3    0    0 -3.05285832963e+01 +1.10472380072e+02 +1.73011056142e+02  2.07530640398e+02  0.00000000000e+00 0.0000e+00 -1.0000e+00
      -13  1    3    3    0    0 -1.87056926194e+00 +4.61101760847e+00 +1.15122467590e+02  1.15229957289e+02  0.00000000000e+00 0.0000e+00 1.0000e+00
       24  2    1    2    0    0 +2.39619577274e+01 +9.75906244575e+01 -4.41346475798e+02  4.60314932955e+02  8.36959999139e+01 0.0000e+00 0.0000e+00
        4  1    6    6  504    0 -2.59897517085e+01 +2.81773819635e+01 -7.63357688524e+01  8.54200307567e+01  0.00000000000e+00 0.0000e+00 -1.0000e+00
       -3  1    6    6    0  504 +4.99517094359e+01 +6.94132424941e+01 -3.65010706946e+02  3.74894902198e+02  0.00000000000e+00 0.0000e+00 1.0000e+00
       21  1    1    2  503  501 +5.96576206220e+01 -1.87341662863e+01 +2.89824567186e+02  2.96493305876e+02  0.00000000000e+00 0.0000e+00 -1.0000e+00
        1  1    1    2  502    0 +1.19807580317e+02 -5.57360854977e+02 -9.47152779372e+02  1.10548784093e+03  0.00000000000e+00 0.0000e+00 -1.0000e+00
       -2  1    1    2    0  502 -1.71028006108e+02 +3.63420999125e+02 +1.39951761605e+03  1.45601337876e+03  0.00000000000e+00 0.0000e+00 1.0000e+00
#  0.1300000e+05  0.1300000e+05  0.6253000e+02  0.1300000e+05  0.1300000e+05
<mgrwt>
<rscale>  2 0.25371929e+03</rscale>
<asrwt>  1 0.62529998e+02</asrwt>
<pdfrwt beam="1">  1        2 0.23477643e+00 0.12944798e+03</pdfrwt>
<pdfrwt beam="2">  2       -1       -1 0.32538819e+00 0.27957585e+00 0.62529998e+02 0.25770560e+03</pdfrwt>
<totfact> 0.29291416e-04</totfact>
</mgrwt>
<clustering>
<clus scale="   62.530">  1  5  2 -1</clus>
<clus scale="  129.448">  2  4  1 -1</clus>
<clus scale="  137.777">  1  3  2 -1</clus>
<clus scale="  482.027">  1  7  2 -1</clus>
<clus scale="  482.027">  2  3  1 -1</clus>
</clustering>
<rwgt>
  <wgt id="1">5.93035e-06</wgt>
  <wgt id="2">3.95026e-06</wgt>
  <wgt id="3">2.82521e-06</wgt>
  <wgt id="4">4.2412e-06</wgt>
  <wgt id="5">2.8251e-06</wgt>
  <wgt id="6">2.0205e-06</wgt>
  <wgt id="7">3.19331e-06</wgt>
  <wgt id="8">2.12709e-06</wgt>
  <wgt id="9">1.52129e-06</wgt>
  <wgt id="10">3.66117e-06</wgt>
  <wgt id="11">2.8251e-06</wgt>
  <wgt id="12">2.3047e-06</wgt>
  <wgt id="13">2.8251e-06</wgt>
  <wgt id="14">2.8361e-06</wgt>
  <wgt id="15">2.81739e-06</wgt>
  <wgt id="16">2.8606e-06</wgt>
  <wgt id="17">2.78893e-06</wgt>
  <wgt id="18">2.79931e-06</wgt>
  <wgt id="19">2.86498e-06</wgt>
  <wgt id="20">2.6855e-06</wgt>
  <wgt id="21">2.91279e-06</wgt>
  <wgt id="22">2.83036e-06</wgt>
  <wgt id="23">2.81675e-06</wgt>
  <wgt id="24">2.86576e-06</wgt>
  <wgt id="25">2.79975e-06</wgt>
  <wgt id="26">2.8021e-06</wgt>
  <wgt id="27">2.85752e-06</wgt>
  <wgt id="28">2.79919e-06</wgt>
  <wgt id="29">2.83915e-06</wgt>
  <wgt id="30">2.763e-06</wgt>
  <wgt id="31">2.91196e-06</wgt>
  <wgt id="32">2.81005e-06</wgt>
  <wgt id="33">2.84251e-06</wgt>
  <wgt id="34">3.02176e-06</wgt>
  <wgt id="35">2.49265e-06</wgt>
  <wgt id="36">3.39813e-06</wgt>
  <wgt id="37">2.40138e-06</wgt>
  <wgt id="38">2.7208e-06</wgt>
  <wgt id="39">2.85632e-06</wgt>
  <wgt id="40">2.80552e-06</wgt>
  <wgt id="41">2.86161e-06</wgt>
  <wgt id="42">2.87423e-06</wgt>
  <wgt id="43">2.72386e-06</wgt>
  <wgt id="44">3.18751e-06</wgt>
  <wgt id="45">2.66757e-06</wgt>
  <wgt id="46">3.08826e-06</wgt>
  <wgt id="47">2.63785e-06</wgt>
  <wgt id="48">3.20873e-06</wgt>
  <wgt id="49">2.56524e-06</wgt>
  <wgt id="50">2.81548e-06</wgt>
  <wgt id="51">2.87637e-06</wgt>
  <wgt id="52">2.93064e-06</wgt>
  <wgt id="53">2.79332e-06</wgt>
</rwgt>
</event>
<event>
 12      0 +2.8251000e-06 2.67660800e+02 7.54677100e-03 1.04696500e-01
        2 -1    0    0  503    0 +0.00000000000e+00 +0.00000000000e+00 +1.37039873010e+03  1.37039873010e+03  0.00000000000e+00 0.0000e+00 -1.0000e+00
        2 -1    0    0  504    0 +0.00000000000e+00 +0.00000000000e+00 -8.84405959400e+02  8.84405959400e+02  0.00000000000e+00 0.0000e+00 -1.0000e+00
       24  2    1    2    0    0 +5.23886069630e+01 -2.23483471716e+01 +5.15780670696e+02  5.26068970654e+02  8.64571966995e+01 0.0000e+00 0.0000e+00
        2  1    3    3  505    0 +2.81578405080e+00 -4.67422755379e+01 +1.93404044259e+02  1.98992194063e+02  0.00000000000e+00 0.0000e+00 -1.0000e+00
       -1  1    3    3    0  505 +4.95728229122e+01 +2.43939283663e+01 +3.22376626437e+02  3.27076776591e+02  0.00000000000e+00 0.0000e+00 1.0000e+00
       24  2    1    2    0    0 +1.22860610834e+02 +6.15552862155e+01 +1.03318155970e+02  1.88985524651e+02  7.84672174800e+01 0.0000e+00 0.0000e+00
        2  1    6    6  506    0 +5.72178078677e+01 +1.71746313362e+01 +9.09105468096e+01  1.08782227500e+02  0.00000000000e+00 0.0000e+00 -1.0000e+00
       -1  1    6    6    0  506 +6.56428029666e+01 +4.43806548793e+01 +1.24076091606e+01  8.02032971511e+01  0.00000000000e+00 0.0000e+00 1.0000e+00
       21  1    1    2  503  502 -2.76691232866e+01 -3.99411690524e+01 +2.00013342821e+02  2.05830548449e+02  0.00000000000e+00 0.0000e+00 1.0000e+00
       21  1    1    2  504  501 +1.95177214335e+02 -1.95936669807e+01 -1.98538594571e+02  2.79097886620e+02  0.00000000000e+00 0.0000e+00 -1.0000e+00
        1  1    1    2  501    0 +2.12868689737e+02 -3.05465562917e+02 +7.03513589526e+01  3.78908436043e+02  0.00000000000e+00 0.0000e+00 -1.0000e+00
        1  1    1    2  502    0 -5.55625998583e+02 +3.25793459906e+02 -2.04932163168e+02  6.75913323082e+02  0.00000000000e+00 0.0000e+00 -1.0000e+00
#  0.1300000e+05  0.1300000e+05  0.4858886e+02  0.2314369e+03  0.1300000e+05  0.1300000e+05
<mgrwt>
<rscale>  3 0.23935392e+03</rscale>
<asrwt>  1 0.48588861e+02</asrwt>
<pdfrwt beam="1">  2        2        2 0.21083057e+00 0.17891844e+00 0.48588861e+02 0.26766083e+03</pdfrwt>
<pdfrwt beam="2">  1        2 0.13606246e+00 0.15826165e+03</pdfrwt>
<totfact> 0.13656618e-02</totfact>
</mgrwt>
<clustering>
<clus scale="   48.589">  1  5  2 -1</clus>
<clus scale="  101.204">  1  3  2 -1</clus>
<clus scale="  158.262">  2  4  1 -1</clus>
<clus scale="  231.437">  2  6  1 -1</clus>
<clus scale="  452.683">  2  8  1 -1</clus>
<clus scale="  452.683">  1  3  2 -1</clus>
</clustering>
<rwgt>
  <wgt id="1">6.03397e-06</wgt>
  <wgt id="2">3.26257e-06</wgt>
  <wgt id="3">1.96602e-06</wgt>
  <wgt id="4">5.22489e-06</wgt>
  <wgt id="5">2.8251e-06</wgt>
  <wgt id="6">1.7024e-06</wgt>
  <wgt id="7">4.59416e-06</wgt>
  <wgt id="8">2.48406e-06</wgt>
  <wgt id="9">1.4969e-06</wgt>
  <wgt id="10">3.71183e-06</wgt>
  <wgt id="11">2.8251e-06</wgt>
  <wgt id="12">2.28582e-06</wgt>
  <wgt id="13">2.8251e-06</wgt>
  <wgt id="14">2.82805e-06</wgt>
  <wgt id="15">2.82277e-06</wgt>
  <wgt id="16">2.81067e-06</wgt>
  <wgt id="17">2.84129e-06</wgt>
  <wgt id="18">2.81131e-06</wgt>
  <wgt id="19">2.84568e-06</wgt>
  <wgt id="20">2.81523e-06</wgt>
  <wgt id="21">2.83177e-06</wgt>
  <wgt id="22">2.83314e-06</wgt>
  <wgt id="23">2.81379e-06</wgt>
  <wgt id="24">2.86902e-06</wgt>
  <wgt id="25">2.79812e-06</wgt>
  <wgt id="26">2.82521e-06</wgt>
  <wgt id="27">2.82512e-06</wgt>
  <wgt id="28">2.87857e-06</wgt>
  <wgt id="29">2.80587e-06</wgt>
  <wgt id="30">2.83123e-06</wgt>
  <wgt id="31">2.81754e-06</wgt>
  <wgt id="32">2.82778e-06</wgt>
  <wgt id="33">2.82266e-06</wgt>
  <wgt id="34">2.78463e-06</wgt>
  <wgt id="35">2.9002e-06</wgt>
  <wgt id="36">2.85067e-06</wgt>
  <wgt id="37">2.81063e-06</wgt>
  <wgt id="38">2.81252e-06</wgt>
  <wgt id="39">2.83157e-06</wgt>
  <wgt id="40">2.82716e-06</wgt>
  <wgt id="41">2.82347e-06</wgt>
  <wgt id="42">2.85009e-06</wgt>
  <wgt id="43">2.785e-06</wgt>
  <wgt id="44">2.83203e-06</wgt>
  <wgt id="45">2.82267e-06</wgt>
  <wgt id="46">2.82388e-06</wgt>
  <wgt id="47">2.82603e-06</wgt>
  <wgt id="48">2.82098e-06</wgt>
  <wgt id="49">2.83113e-06</wgt>
  <wgt id="50">2.81628e-06</wgt>
  <wgt id="51">2.8382e-06</wgt>
  <wgt id="52">2.84047e-06</wgt>
  <wgt id="53">2.82118e-06</wgt>
</rwgt>
</event>
<event>
 10      0 +2.8251000e-06 1.95582400e+02 7.54677100e-03 1.08785500e-01
       -1 -1    0    0    0  501 +0.00000000000e+00 +0.00000000000e+00 +4.01079753620e+02  4.01079753620e+02  0.00000000000e+00 0.0000e+00 1.0000e+00
       -3 -1    0    0    0  502 +0.00000000000e+00 +0.00000000000e+00 -4.32164246170e+02  4.32164246170e+02  0.00000000000e+00 0.0000e+00 1.0000e+00
       24  2    1    2    0    0 +2.38132275130e+01 -5.43376522456e+01 -3.93761238130e+01  1.14060736991e+02  8.91051196069e+01 0.0000e+00 0.0000e+00
        4  1    3    3  503    0 +1.68436307161e+01 +7.84366008815e+00 +2.03528523426e+01  2.75584741551e+01  0.00000000000e+00 0.0000e+00 -1.0000e+00
       -3  1    3    3    0  503 +6.96959679694e+00 -6.21813123338e+01 -5.97289761557e+01  8.65022628355e+01  0.00000000000e+00 0.0000e+00 1.0000e+00
       24  2    1    2    0    0 -2.94737325629e+00 +1.30907647147e+02 -5.57767419018e+01  1.62683373234e+02  7.87993394583e+01 0.0000e+00 0.0000e+00
        4  1    6    6  504    0 -5.75647726335e+00 +1.35906567590e+02 -3.40674162761e+01  1.40229529687e+02  0.00000000000e+00 0.0000e+00 -1.0000e+00
       -3  1    6    6    0  504 +2.80910400706e+00 -4.99892044302e+00 -2.17093256257e+01  2.24538435471e+01  0.00000000000e+00 0.0000e+00 1.0000e+00
       -2  1    1    2    0  502 -2.82465459184e+02 -3.28223993655e+01 +6.30200016202e+01  2.91265456476e+02  0.00000000000e+00 0.0000e+00 1.0000e+00
       -4  1    1    2    0  501 +2.61599604927e+02 -4.37475955356e+01 +1.04837154467e+00  2.65234433089e+02  0.00000000000e+00 0.0000e+00 1.0000e+00
#  0.1300000e+05  0.1300000e+05  0.1300000e+05  0.1300000e+05
<mgrwt>
<rscale>  2 0.18050945e+03</rscale>
<asrwt>0</asrwt>
<pdfrwt beam="1">  1       -1 0.61704577e-01 0.13921733e+03</pdfrwt>
<pdfrwt beam="2">  1       -3 0.66486807e-01 0.10101217e+03</pdfrwt>
<totfact> 0.56099630e-01</totfact>
</mgrwt>
<clustering>
<clus scale="  101.012">  2  3  1 -1</clus>
<clus scale="  139.217">  1  4  2 -1</clus>
<clus scale="  274.768">  1  5  2 -1</clus>
<clus scale="  274.768">  1  3  2 -1</clus>
</clustering>
<rwgt>
  <wgt id="1">4.41351e-06</wgt>
  <wgt id="2">2.8748e-06</wgt>
  <wgt id="3">2.02545e-06</wgt>
  <wgt id="4">4.3372e-06</wgt>
  <wgt id="5">2.8251e-06</wgt>
  <wgt id="6">1.99043e-06</wgt>
  <wgt id="7">4.14857e-06</wgt>
  <wgt id="8">2.70224e-06</wgt>
  <wgt id="9">1.90386e-06</wgt>
  <wgt id="10">2.8251e-06</wgt>
  <wgt id="11">2.8251e-06</wgt>
  <wgt id="12">2.8251e-06</wgt>
  <wgt id="13">2.8251e-06</wgt>
  <wgt id="14">2.83514e-06</wgt>
  <wgt id="15">2.81676e-06</wgt>
  <wgt id="16">2.80991e-06</wgt>
  <wgt id="17">2.84148e-06</wgt>
  <wgt id="18">2.8547e-06</wgt>
  <wgt id="19">2.78062e-06</wgt>
  <wgt id="20">2.82057e-06</wgt>
  <wgt id="21">2.82796e-06</wgt>
  <wgt id="22">2.87414e-06</wgt>
  <wgt id="23">2.75588e-06</wgt>
  <wgt id="24">2.82514e-06</wgt>
  <wgt id="25">2.82478e-06</wgt>
  <wgt id="26">2.8224e-06</wgt>
  <wgt id="27">2.82873e-06</wgt>
  <wgt id="28">2.83091e-06</wgt>
  <wgt id="29">2.82313e-06</wgt>
  <wgt id="30">2.81729e-06</wgt>
  <wgt id="31">2.83337e-06</wgt>
  <wgt id="32">2.83391e-06</wgt>
  <wgt id="33">2.8165e-06</wgt>
  <wgt id="34">2.81933e-06</wgt>
  <wgt id="35">2.83778e-06</wgt>
  <wgt id="36">2.82438e-06</wgt>
  <wgt id="37">2.822e-06</wgt>
  <wgt id="38">2.82702e-06</wgt>
  <wgt id="39">2.82408e-06</wgt>
  <wgt id="40">2.82074e-06</wgt>
  <wgt id="41">2.83151e-06</wgt>
  <wgt id="42">2.83017e-06</wgt>
  <wgt id="43">2.79941e-06</wgt>
  <wgt id="44">2.81249e-06</wgt>
  <wgt id="45">2.8296e-06</wgt>
  <wgt id="46">2.83825e-06</wgt>
  <wgt id="47">2.81175e-06</wgt>
  <wgt id="48">2.81325e-06</wgt>
  <wgt id="49">2.83255e-06</wgt>
  <wgt id="50">2.8519e-06</wgt>
  <wgt id="51">2.80574e-06</wgt>
  <wgt id="52">2.80776e-06</wgt>
  <wgt id="53">2.88368e-06</wgt>
</rwgt>
</event>
<event>
 10      0 +2.8251000e-06 7.36589900e+02 7.54677100e-03 9.52572000e-02
        2 -1    0    0  502    0 +0.00000000000e+00 +0.00000000000e+00 +4.11712903610e+03  4.11712903610e+03  0.00000000000e+00 0.0000e+00 -1.0000e+00
        4 -1    0    0  501    0 +0.00000000000e+00 +0.00000000000e+00 -1.05624747440e+02  1.05624747440e+02  0.00000000000e+00 0.0000e+00 -1.0000e+00
       24  2    1    2    0    0 +3.03292692070e+02 +9.79065915430e+01 +4.34477239799e+02  5.42846028939e+02  6.58724639041e+01 0.0000e+00 0.0000e+00
        2  1    3    3  503    0 +2.81909383159e+02 +7.86355832054e+01 +4.16009152421e+02  5.08645328453e+02  0.00000000000e+00 0.0000e+00 -1.0000e+00
       -1  1    3    3    0  503 +2.13833089112e+01 +1.92710083376e+01 +1.84680873786e+01  3.42007004864e+01  0.00000000000e+00 0.0000e+00 1.0000e+00
       24  2    1    2    0    0 -9.63208992794e+01 +1.02876430487e+02 +6.42620746064e+02  6.62775629283e+02  8.03046443968e+01 0.0000e+00 0.0000e+00
        2  1    6    6  504    0 -3.60883411783e+01 +9.16599705533e+01 +4.49567146006e+02  4.60233133682e+02  0.00000000000e+00 0.0000e+00 -1.0000e+00
       -1  1    6    6    0  504 -6.02325581011e+01 +1.12164599339e+01 +1.93053600057e+02  2.02542495600e+02  0.00000000000e+00 0.0000e+00 1.0000e+00
        1  1    1    2  501    0 -3.65200124465e+02 +4.60796016856e+01 +1.11339537313e+03  1.17266521971e+03  0.00000000000e+00 0.0000e+00 -1.0000e+00
        3  1    1    2  502    0 +1.58228331674e+02 -2.46862623716e+02 +1.82101092966e+03  1.84446690561e+03  0.00000000000e+00 0.0000e+00 -1.0000e+00
#  0.1300000e+05  0.1300000e+05  0.1300000e+05  0.1300000e+05
<mgrwt>
<rscale>  2 0.50460265e+03</rscale>
<asrwt>0</asrwt>
<pdfrwt beam="1">  1        2 0.63340447e+00 0.16222611e+03</pdfrwt>
<pdfrwt beam="2">  1        4 0.16249961e-01 0.73658994e+03</pdfrwt>
<totfact> 0.74926181e-02</totfact>
</mgrwt>
<clustering>
<clus scale="  162.226">  1  4  2 -1</clus>
<clus scale="  220.361">  3  6 -1 -1</clus>
<clus scale="  403.842">  1  5  2 -1</clus>
<clus scale="  736.590">  1  3  2 -1</clus>
</clustering>
<rwgt>
  <wgt id="1">5.1301e-06</wgt>
  <wgt id="2">3.55201e-06</wgt>
  <wgt id="3">2.60889e-06</wgt>
  <wgt id="4">4.08023e-06</wgt>
  <wgt id="5">2.8251e-06</wgt>
  <wgt id="6">2.07498e-06</wgt>
  <wgt id="7">3.32605e-06</wgt>
  <wgt id="8">2.30291e-06</wgt>
  <wgt id="9">1.69145e-06</wgt>
  <wgt id="10">2.8251e-06</wgt>
  <wgt id="11">2.8251e-06</wgt>
  <wgt id="12">2.8251e-06</wgt>
  <wgt id="13">2.8251e-06</wgt>
  <wgt id="14">2.83242e-06</wgt>
  <wgt id="15">2.81908e-06</wgt>
  <wgt id="16">2.80836e-06</wgt>
  <wgt id="17">2.84385e-06</wgt>
  <wgt id="18">2.81585e-06</wgt>
  <wgt id="19">2.83878e-06</wgt>
  <wgt id="20">2.82271e-06</wgt>
  <wgt id="21">2.8267e-06</wgt>
  <wgt id="22">2.82878e-06</wgt>
  <wgt id="23">2.81999e-06</wgt>
  <wgt id="24">2.84284e-06</wgt>
  <wgt id="25">2.81408e-06</wgt>
  <wgt id="26">2.82902e-06</wgt>
  <wgt id="27">2.81978e-06</wgt>
  <wgt id="28">2.78824e-06</wgt>
  <wgt id="29">2.83799e-06</wgt>
  <wgt id="30">2.82834e-06</wgt>
  <wgt id="31">2.81853e-06</wgt>
  <wgt id="32">2.80177e-06</wgt>
  <wgt id="33">2.84755e-06</wgt>
  <wgt id="34">2.8101e-06</wgt>
  <wgt id="35">2.85132e-06</wgt>
  <wgt id="36">2.85348e-06</wgt>
  <wgt id="37">2.80787e-06</wgt>
  <wgt id="38">2.82387e-06</wgt>
  <wgt id="39">2.82564e-06</wgt>
  <wgt id="40">2.85292e-06</wgt>
  <wgt id="41">2.79851e-06</wgt>
  <wgt id="42">2.81786e-06</wgt>
  <wgt id="43">2.83876e-06</wgt>
  <wgt id="44">2.83164e-06</wgt>
  <wgt id="45">2.8225e-06</wgt>
  <wgt id="46">2.82934e-06</wgt>
  <wgt id="47">2.82254e-06</wgt>
  <wgt id="48">2.81539e-06</wgt>
  <wgt id="49">2.83867e-06</wgt>
  <wgt id="50">2.82536e-06</wgt>
  <wgt id="51">2.81255e-06</wgt>
  <wgt id="52">2.81847e-06</wgt>
  <wgt id="53">2.82758e-06</wgt>
</rwgt>
</event>
<event>
 12      0 +2.8251000e-06 1.85066200e+02 7.54677100e-03 1.10046800e-01
        2 -1    0    0  502    0 +0.00000000000e+00 +0.00000000000e+00 +1.34618987960e+03  1.34618987960e+03  0.00000000000e+00 0.0000e+00 -1.0000e+00
        2 -1    0    0  504    0 +0.00000000000e+00 +0.00000000000e+00 -8.24051025470e+02  8.24051025470e+02  0.00000000000e+00 0.0000e+00 -1.0000e+00
       24  2    1    2    0    0 +3.95965115155e+01 +1.34406148465e+02 -3.54427199273e+01  1.65368477190e+02  8.03595071100e+01 0.0000e+00 0.0000e+00
        4  1    3    3  505    0 +1.70974465174e+01 +9.60889985638e+01 +1.43328031529e+01  9.86450585110e+01  0.00000000000e+00 0.0000e+00 -1.0000e+00
       -3  1    3    3    0  505 +2.24990649981e+01 +3.83171499013e+01 -4.97755230802e+01  6.67234186793e+01  0.00000000000e+00 0.0000e+00 1.0000e+00
       24  2    1    2    0    0 -2.48559957329e+01 +3.86890675383e+01 +5.11484381577e+02  5.19758416234e+02  8.01116357267e+01 0.0000e+00 0.0000e+00
       14  1    6    6    0    0 -2.69782736249e+01 +6.25222993772e+01 +3.97402226341e+02  4.03193991359e+02  0.00000000000e+00 0.0000e+00 -1.0000e+00
      -13  1    6    6    0    0 +2.12227789198e+00 -2.38332318389e+01 +1.14082155235e+02  1.16564424875e+02  0.00000000000e+00 0.0000e+00 1.0000e+00
       21  1    1    2  503  501 +6.81907132350e+01 -4.37088640469e+01 +1.51693164629e+01  8.24047712801e+01  0.00000000000e+00 0.0000e+00 1.0000e+00
       21  1    1    2  504  503 +5.65333490505e+01 -5.38549981747e+01 +8.73083344659e+01  1.17128671343e+02  0.00000000000e+00 0.0000e+00 -1.0000e+00
        1  1    1    2  501    0 +8.67834883971e+01 -1.53815782553e+02 +5.79663916191e+02  6.05971059173e+02  0.00000000000e+00 0.0000e+00 -1.0000e+00
        1  1    1    2  502    0 -2.26248066465e+02 +7.82844287716e+01 -6.36044374640e+02  6.79609509850e+02  0.00000000000e+00 0.0000e+00 -1.0000e+00
#  0.1300000e+05  0.1300000e+05  0.6389601e+02  0.6389601e+02  0.1300000e+05  0.1300000e+05
<mgrwt>
<rscale>  3 0.16619224e+03</rscale>
<asrwt>  1 0.63896013e+02</asrwt>
<pdfrwt beam="1">  1        2 0.20710614e+00 0.92557307e+02</pdfrwt>
<pdfrwt beam="2">  1        2 0.12677708e+00 0.14232319e+03</pdfrwt>
<totfact> 0.17019859e-02</totfact>
</mgrwt>
<clustering>
<clus scale="   63.896">  5  6 -1 -1</clus>
<clus scale="   92.557">  1  4  2 -1</clus>
<clus scale="  143.815">  1  7  2 -1</clus>
<clus scale="  142.323">  2  3  1 -1</clus>
<clus scale="  231.681">  2  8  1 -1</clus>
<clus scale="  240.646">  1  3  2 -1</clus>
</clustering>
<rwgt>
  <wgt id="1">6.39785e-06</wgt>
  <wgt id="2">3.33382e-06</wgt>
  <wgt id="3">1.96013e-06</wgt>
  <wgt id="4">5.42158e-06</wgt>
  <wgt id="5">2.8251e-06</wgt>
  <wgt id="6">1.66103e-06</wgt>
  <wgt id="7">4.6883e-06</wgt>
  <wgt id="8">2.443e-06</wgt>
  <wgt id="9">1.43637e-06</wgt>
  <wgt id="10">3.65713e-06</wgt>
  <wgt id="11">2.8251e-06</wgt>
  <wgt id="12">2.30624e-06</wgt>
  <wgt id="13">2.8251e-06</wgt>
  <wgt id="14">2.82799e-06</wgt>
  <wgt id="15">2.82275e-06</wgt>
  <wgt id="16">2.812e-06</wgt>
  <wgt id="17">2.8397e-06</wgt>
  <wgt id="18">2.81144e-06</wgt>
  <wgt id="19">2.84538e-06</wgt>
  <wgt id="20">2.81439e-06</wgt>
  <wgt id="21">2.83234e-06</wgt>
  <wgt id="22">2.8329e-06</wgt>
  <wgt id="23">2.8141e-06</wgt>
  <wgt id="24">2.86794e-06</wgt>
  <wgt id="25">2.79871e-06</wgt>
  <wgt id="26">2.82493e-06</wgt>
  <wgt id="27">2.82538e-06</wgt>
  <wgt id="28">2.87809e-06</wgt>
  <wgt id="29">2.80599e-06</wgt>
  <wgt id="30">2.83126e-06</wgt>
  <wgt id="31">2.81742e-06</wgt>
  <wgt id="32">2.82816e-06</wgt>
  <wgt id="33">2.82225e-06</wgt>
  <wgt id="34">2.78527e-06</wgt>
  <wgt id="35">2.89885e-06</wgt>
  <wgt id="36">2.85144e-06</wgt>
  <wgt id="37">2.81027e-06</wgt>
  <wgt id="38">2.81247e-06</wgt>
  <wgt id="39">2.83148e-06</wgt>
  <wgt id="40">2.82663e-06</wgt>
  <wgt id="41">2.82395e-06</wgt>
  <wgt id="42">2.84991e-06</wgt>
  <wgt id="43">2.78477e-06</wgt>
  <wgt id="44">2.83266e-06</wgt>
  <wgt id="45">2.82235e-06</wgt>
  <wgt id="46">2.82424e-06</wgt>
  <wgt id="47">2.82582e-06</wgt>
  <wgt id="48">2.81824e-06</wgt>
  <wgt id="49">2.832e-06</wgt>
  <wgt id="50">2.81598e-06</wgt>
  <wgt id="51">2.83833e-06</wgt>
  <wgt id="52">2.83932e-06</wgt>
  <wgt id="53">2.82148e-06</wgt>
</rwgt>
</event>
<event>
 12      0 +2.8251000e-06 2.62409500e+02 7.54677100e-03 1.03700600e-01
        2 -1    0    0  501    0 +0.00000000000e+00 +0.00000000000e+00 +1.91134475930e+03  1.91134475930e+03  0.00000000000e+00 0.0000e+00 -1.0000e+00
        2 -1    0    0  504    0 +0.00000000000e+00 +0.00000000000e+00 -2.44228675820e+03  2.44228675820e+03  0.00000000000e+00 0.0000e+00 -1.0000e+00
       24  2    1    2    0    0 +1.67891536091e+01 +3.85152486228e+01 -5.37240972527e+01  1.06311374844e+02  8.15507801331e+01 0.0000e+00 0.0000e+00
        4  1    3    3  505    0 +4.72924030518e+01 +1.74120448723e+01 -1.47541741877e+01  5.25112973465e+01  0.00000000000e+00 0.0000e+00 -1.0000e+00
       -3  1    3    3    0  505 -3.05032494427e+01 +2.11032037505e+01 -3.89699230650e+01  5.38000774980e+01  0.00000000000e+00 0.0000e+00 1.0000e+00
       24  2    1    2    0    0 +2.90176095872e+01 -6.11079061831e+00 +6.33809970845e+02  6.39173638464e+02  7.71265034629e+01 0.0000e+00 0.0000e+00
        4  1    6    6  506    0 +4.66150445200e+01 -2.69228907339e+01 +3.58682224722e+02  3.62699245592e+02  0.00000000000e+00 0.0000e+00 -1.0000e+00
       -3  1    6    6    0  506 -1.75974349328e+01 +2.08121001156e+01 +2.75127746122e+02  2.76474392872e+02  0.00000000000e+00 0.0000e+00 1.0000e+00
       21  1    1    2  503  502 +8.36537391615e+01 +5.05987273859e+02 +5.86666073440e+02  7.79229203193e+02  0.00000000000e+00 0.0000e+00 -1.0000e+00
       21  1    1    2  504  503 +5.61193864128e+00 +5.04800819395e+01 -1.33468964496e+03  1.33565571196e+03  0.00000000000e+00 0.0000e+00 1.0000e+00
        1  1    1    2  501    0 -2.29491981187e+02 -7.75157768371e+02 -7.18103303553e+02  1.08129944505e+03  0.00000000000e+00 0.0000e+00 -1.0000e+00
        1  1    1    2  502    0 +9.44195401884e+01 +1.86285954567e+02 +3.55099002585e+02  4.11962143983e+02  0.00000000000e+00 0.0000e+00 -1.0000e+00
#  0.1300000e+05  0.1300000e+05  0.9299095e+02  0.5079107e+02  0.1300000e+05  0.1300000e+05
<mgrwt>
<rscale>  2 0.25726219e+03</rscale>
<asrwt>  2 0.50791067e+02 0.92990946e+02</asrwt>
<pdfrwt beam="1">  1        2 0.29405304e+00 0.85732490e+02</pdfrwt>
<pdfrwt beam="2">  2        2        2 0.37573642e+00 0.17023029e+00 0.50791067e+02 0.26240950e+03</pdfrwt>
<totfact> 0.12436496e-03</totfact>
</mgrwt>
<clustering>
<clus scale="   50.791">  2  6  1 -1</clus>
<clus scale="   85.732">  1  4  2 -1</clus>
<clus scale="   92.803">  2  3  1 -1</clus>
<clus scale="   92.991">  5  8 -1 -1</clus>
<clus scale="  727.660">  2  7  1 -1</clus>
<clus scale="  741.992">  1  3  2 -1</clus>
</clustering>
<rwgt>
  <wgt id="1">5.39232e-06</wgt>
  <wgt id="2">3.59493e-06</wgt>
  <wgt id="3">2.57257e-06</wgt>
  <wgt id="4">4.23759e-06</wgt>
  <wgt id="5">2.8251e-06</wgt>
  <wgt id="6">2.02167e-06</wgt>
  <wgt id="7">3.45352e-06</wgt>
  <wgt id="8">2.30238e-06</wgt>
  <wgt id="9">1.64761e-06</wgt>
  <wgt id="10">4.70827e-06</wgt>
  <wgt id="11">2.8251e-06</wgt>
  <wgt id="12">1.8896e-06</wgt>
  <wgt id="13">2.8251e-06</wgt>
  <wgt id="14">2.82857e-06</wgt>
  <wgt id="15">2.82243e-06</wgt>
  <wgt id="16">2.79816e-06</wgt>
  <wgt id="17">2.85556e-06</wgt>
  <wgt id="18">2.80861e-06</wgt>
  <wgt id="19">2.84962e-06</wgt>
  <wgt id="20">2.82203e-06</wgt>
  <wgt id="21">2.8272e-06</wgt>
  <wgt id="22">2.83574e-06</wgt>
  <wgt id="23">2.81003e-06</wgt>
  <wgt id="24">2.88157e-06</wgt>
  <wgt id="25">2.79058e-06</wgt>
  <wgt id="26">2.82667e-06</wgt>
  <wgt id="27">2.82303e-06</wgt>
  <wgt id="28">2.86616e-06</wgt>
  <wgt id="29">2.81017e-06</wgt>
  <wgt id="30">2.82991e-06</wgt>
  <wgt id="31">2.8191e-06</wgt>
  <wgt id="32">2.81884e-06</wgt>
  <wgt id="33">2.83121e-06</wgt>
  <wgt id="34">2.77591e-06</wgt>
  <wgt id="35">2.91653e-06</wgt>
  <wgt id="36">2.83736e-06</wgt>
  <wgt id="37">2.82012e-06</wgt>
  <wgt id="38">2.81778e-06</wgt>
  <wgt id="39">2.82995e-06</wgt>
  <wgt id="40">2.84015e-06</wgt>
  <wgt id="41">2.81011e-06</wgt>
  <wgt id="42">2.84915e-06</wgt>
  <wgt id="43">2.78869e-06</wgt>
  <wgt id="44">2.83152e-06</wgt>
  <wgt id="45">2.82287e-06</wgt>
  <wgt id="46">2.82188e-06</wgt>
  <wgt id="47">2.82697e-06</wgt>
  <wgt id="48">2.84367e-06</wgt>
  <wgt id="49">2.82476e-06</wgt>
  <wgt id="50">2.82018e-06</wgt>
  <wgt id="51">2.83552e-06</wgt>
  <wgt id="52">2.84641e-06</wgt>
  <wgt id="53">2.82025e-06</wgt>
</rwgt>
</event>
<event>
 11      0 +2.8251000e-06 2.36729000e+02 7.54677100e-03 1.06149500e-01
        2 -1    0    0  501    0 +0.00000000000e+00 +0.00000000000e+00 +1.85253584250e+03  1.85253584250e+03  0.00000000000e+00 0.0000e+00 -1.0000e+00
        2 -1    0    0  503    0 +0.00000000000e+00 +0.00000000000e+00 -1.43623612860e+03  1.43623612860e+03  0.00000000000e+00 0.0000e+00 -1.0000e+00
       24  2    1    2    0    0 -8.57134401369e+01 +5.65113261979e+01 -6.48410737996e+02  6.62602235309e+02  8.98048622267e+01 0.0000e+00 0.0000e+00
       16  1    3    3    0    0 -3.88362225162e+01 -7.03037149317e+00 -4.00029281581e+02  4.01971521907e+02  0.00000000000e+00 0.0000e+00 -1.0000e+00
      -15  1    3    3    0    0 -4.68772176207e+01 +6.35416976911e+01 -2.48381456415e+02  2.60630713402e+02  1.77700000000e+00 0.0000e+00 1.0000e+00
       24  2    1    2    0    0 +2.38806803558e+01 -2.03813091420e+01 +1.04180239013e+03  1.04425005877e+03  6.41894111021e+01 0.0000e+00 0.0000e+00
        2  1    6    6  504    0 +3.93386291141e+01 -2.95047313036e+00 +8.66480749874e+02  8.67378304394e+02  0.00000000000e+00 0.0000e+00 -1.0000e+00
       -1  1    6    6    0  504 -1.54579487583e+01 -1.74308360117e+01 +1.75321640257e+02  1.76871754374e+02  0.00000000000e+00 0.0000e+00 1.0000e+00
       21  1    1    2  503  502 +5.76757264422e+01 -2.39679110823e+01 +4.33658454486e+01  7.60364829129e+01  0.00000000000e+00 0.0000e+00 -1.0000e+00
        1  1    1    2  501    0 -3.45728917072e+02 -5.65963926119e+01 -6.76055779249e+02  7.61434864195e+02  0.00000000000e+00 0.0000e+00 -1.0000e+00
        1  1    1    2  502    0 +3.49885950411e+02 +4.44342866383e+01 +6.55597995565e+02  7.44448329915e+02  0.00000000000e+00 0.0000e+00 -1.0000e+00
#  0.1300000e+05  0.1300000e+05  0.5673738e+02  0.1300000e+05  0.1300000e+05
<mgrwt>
<rscale>  2 0.21596998e+03</rscale>
<asrwt>  1 0.56737381e+02</asrwt>
<pdfrwt beam="1">  1        2 0.28500551e+00 0.87466234e+02</pdfrwt>
<pdfrwt beam="2">  1        2 0.22095940e+00 0.12626195e+03</pdfrwt>
<totfact> 0.36805419e-02</totfact>
</mgrwt>
<clustering>
<clus scale="   56.737">  5  7 -1 -1</clus>
<clus scale="   87.466">  1  4  2 -1</clus>
<clus scale="  126.262">  2  3  1 -1</clus>
<clus scale="  422.940">  2  6  1 -1</clus>
<clus scale="  443.844">  1  3  2 -1</clus>
</clustering>
<rwgt>
  <wgt id="1">5.61944e-06</wgt>
  <wgt id="2">3.70477e-06</wgt>
  <wgt id="3">2.63134e-06</wgt>
  <wgt id="4">4.28515e-06</wgt>
  <wgt id="5">2.8251e-06</wgt>
  <wgt id="6">2.00655e-06</wgt>
  <wgt id="7">3.40978e-06</wgt>
  <wgt id="8">2.24799e-06</wgt>
  <wgt id="9">1.59665e-06</wgt>
  <wgt id="10">3.67974e-06</wgt>
  <wgt id="11">2.8251e-06</wgt>
  <wgt id="12">2.29762e-06</wgt>
  <wgt id="13">2.8251e-06</wgt>
  <wgt id="14">2.82818e-06</wgt>
  <wgt id="15">2.82255e-06</wgt>
  <wgt id="16">2.80359e-06</wgt>
  <wgt id="17">2.8492e-06</wgt>
  <wgt id="18">2.81011e-06</wgt>
  <wgt id="19">2.84735e-06</wgt>
  <wgt id="20">2.81996e-06</wgt>
  <wgt id="21">2.82857e-06</wgt>
  <wgt id="22">2.83445e-06</wgt>
  <wgt id="23">2.81176e-06</wgt>
  <wgt id="24">2.8755e-06</wgt>
  <wgt id="25">2.79411e-06</wgt>
  <wgt id="26">2.82629e-06</wgt>
  <wgt id="27">2.82342e-06</wgt>
  <wgt id="28">2.8771e-06</wgt>
  <wgt id="29">2.8063e-06</wgt>
  <wgt id="30">2.83145e-06</wgt>
  <wgt id="31">2.81709e-06</wgt>
  <wgt id="32">2.8243e-06</wgt>
  <wgt id="33">2.82578e-06</wgt>
  <wgt id="34">2.77884e-06</wgt>
  <wgt id="35">2.91082e-06</wgt>
  <wgt id="36">2.84221e-06</wgt>
  <wgt id="37">2.81594e-06</wgt>
  <wgt id="38">2.81557e-06</wgt>
  <wgt id="39">2.83053e-06</wgt>
  <wgt id="40">2.83199e-06</wgt>
  <wgt id="41">2.81831e-06</wgt>
  <wgt id="42">2.85022e-06</wgt>
  <wgt id="43">2.78614e-06</wgt>
  <wgt id="44">2.83008e-06</wgt>
  <wgt id="45">2.82349e-06</wgt>
  <wgt id="46">2.82191e-06</wgt>
  <wgt id="47">2.82691e-06</wgt>
  <wgt id="48">2.83386e-06</wgt>
  <wgt id="49">2.82744e-06</wgt>
  <wgt id="50">2.81887e-06</wgt>
  <wgt id="51">2.83599e-06</wgt>
  <wgt id="52">2.84482e-06</wgt>
  <wgt id="53">2.82037e-06</wgt>
</rwgt>
</event>
<event>
 10      0 +2.8251000e-06 4.80736800e+02 7.54677100e-03 1.00474600e-01
       -1 -1    0    0    0  501 +0.00000000000e+00 +0.00000000000e+00 +1.40948794540e+03  1.40948794540e+03  0.00000000000e+00 0.0000e+00 1.0000e+00
        2 -1    0    0  502    0 +0.00000000000e+00 +0.00000000000e+00 -7.55478809980e+01  7.55478809980e+01  0.00000000000e+00 0.0000e+00 -1.0000e+00
       24  2    1    2    0    0 -1.62953630443e+02 +2.80638604890e+01 +9.04535674653e+01  2.04994035276e+02  8.06178683141e+01 0.0000e+00 0.0000e+00
        4  1    3    3  503    0 -1.50115073422e+02 +4.92661979726e+01 +8.57575759809e+01  1.79766669239e+02  0.00000000000e+00 0.0000e+00 -1.0000e+00
       -3  1    3    3    0  503 -1.28385570209e+01 -2.12023374836e+01 +4.69599148443e+00  2.52273660371e+01  0.00000000000e+00 0.0000e+00 1.0000e+00
       24  2    1    2    0    0 +6.45824970261e+01 -1.15239333455e+01 +5.76913339811e+02  5.86030291004e+02  7.93649819525e+01 0.0000e+00 0.0000e+00
       12  1    6    6    0    0 +1.87239945742e+01 +2.80854502780e+01 +1.06268605656e+02  1.11500659362e+02  0.00000000000e+00 0.0000e+00 -1.0000e+00
      -11  1    6    6    0    0 +4.58585024519e+01 -3.96093836235e+01 +4.70644734155e+02  4.74529631642e+02  0.00000000000e+00 0.0000e+00 1.0000e+00
        1  1    1    2  502    0 +1.26418309081e+01 -4.10165950942e+01 +3.28535113648e+01  5.40511810308e+01  0.00000000000e+00 0.0000e+00 -1.0000e+00
       -2  1    1    2    0  501 +8.57293025090e+01 +2.44766679508e+01 +6.33719645761e+02  6.39960319087e+02  0.00000000000e+00 0.0000e+00 1.0000e+00
#  0.1300000e+05  0.1300000e+05  0.1300000e+05  0.8776784e+02
<mgrwt>
<rscale>  2 0.32827192e+03</rscale>
<asrwt>0</asrwt>
<pdfrwt beam="1">  1        2 0.11622751e-01 0.48073677e+03</pdfrwt>
<pdfrwt beam="2">  1       -1 0.21684430e+00 0.10452325e+03</pdfrwt>
<totfact> 0.91062808e-01</totfact>
</mgrwt>
<clustering>
<clus scale="   42.927">  3  5 -1 -1</clus>
<clus scale="   87.768">  3  6 -1 -1</clus>
<clus scale="  104.523">  1  4  2 -1</clus>
<clus scale="  480.737">  2  3  1 -1</clus>
</clustering>
<rwgt>
  <wgt id="1">4.7907e-06</wgt>
  <wgt id="2">3.24092e-06</wgt>
  <wgt id="3">2.3424e-06</wgt>
  <wgt id="4">4.17603e-06</wgt>
  <wgt id="5">2.8251e-06</wgt>
  <wgt id="6">2.04186e-06</wgt>
  <wgt id="7">3.69296e-06</wgt>
  <wgt id="8">2.4983e-06</wgt>
  <wgt id="9">1.80566e-06</wgt>
  <wgt id="10">2.8251e-06</wgt>
  <wgt id="11">2.8251e-06</wgt>
  <wgt id="12">2.8251e-06</wgt>
  <wgt id="13">2.8251e-06</wgt>
  <wgt id="14">2.83087e-06</wgt>
  <wgt id="15">2.82026e-06</wgt>
  <wgt id="16">2.85641e-06</wgt>
  <wgt id="17">2.7902e-06</wgt>
  <wgt id="18">2.81224e-06</wgt>
  <wgt id="19">2.84501e-06</wgt>
  <wgt id="20">2.8383e-06</wgt>
  <wgt id="21">2.81637e-06</wgt>
  <wgt id="22">2.83481e-06</wgt>
  <wgt id="23">2.81124e-06</wgt>
  <wgt id="24">2.87755e-06</wgt>
  <wgt id="25">2.79319e-06</wgt>
  <wgt id="26">2.82286e-06</wgt>
  <wgt id="27">2.82709e-06</wgt>
  <wgt id="28">2.82674e-06</wgt>
  <wgt id="29">2.82435e-06</wgt>
  <wgt id="30">2.80669e-06</wgt>
  <wgt id="31">2.84613e-06</wgt>
  <wgt id="32">2.83373e-06</wgt>
  <wgt id="33">2.81688e-06</wgt>
  <wgt id="34">2.85423e-06</wgt>
  <wgt id="35">2.77564e-06</wgt>
  <wgt id="36">2.82429e-06</wgt>
  <wgt id="37">2.8209e-06</wgt>
  <wgt id="38">2.96869e-06</wgt>
  <wgt id="39">2.75948e-06</wgt>
  <wgt id="40">2.82159e-06</wgt>
  <wgt id="41">2.83187e-06</wgt>
  <wgt id="42">2.81273e-06</wgt>
  <wgt id="43">2.82556e-06</wgt>
  <wgt id="44">2.93963e-06</wgt>
  <wgt id="45">2.77589e-06</wgt>
  <wgt id="46">2.91027e-06</wgt>
  <wgt id="47">2.76768e-06</wgt>
  <wgt id="48">2.86728e-06</wgt>
  <wgt id="49">2.78973e-06</wgt>
  <wgt id="50">2.81136e-06</wgt>
  <wgt id="51">2.84085e-06</wgt>
  <wgt id="52">2.77674e-06</wgt>
  <wgt id="53">2.83771e-06</wgt>
</rwgt>
</event>
<event>
 11      0 +2.8251000e-06 2.77856700e+02 7.54677100e-03 1.02754600e-01
        2 -1    0    0  502    0 +0.00000000000e+00 +0.00000000000e+00 +1.95501625860e+03  1.95501625860e+03  0.00000000000e+00 0.0000e+00 -1.0000e+00
        4 -1    0    0  503    0 +0.00000000000e+00 +0.00000000000e+00 -6.22181490570e+01  6.22181490570e+01  0.00000000000e+00 0.0000e+00 -1.0000e+00
       24  2    1    2    0    0 +1.89674245131e+01 -1.01933687138e+02 +6.56143178802e+02  6.69153104630e+02  8.05714998080e+01 0.0000e+00 0.0000e+00
        2  1    3    3  504    0 +4.45633619088e+01 -8.02995218636e+01 +5.56451176576e+02  5.63978561959e+02  0.00000000000e+00 0.0000e+00 -1.0000e+00
       -1  1    3    3    0  504 -2.55959373958e+01 -2.16341652745e+01 +9.96920022258e+01  1.05174542671e+02  0.00000000000e+00 0.0000e+00 1.0000e+00
       24  2    1    2    0    0 +8.34123120254e+01 +1.10323243271e+02 +5.53910449983e+02  5.76323925629e+02  7.87632455432e+01 0.0000e+00 0.0000e+00
        2  1    6    6  505    0 +9.52676891174e+01 +1.10746095318e+02 +4.89633718248e+02  5.10961650482e+02  0.00000000000e+00 0.0000e+00 -1.0000e+00
       -1  1    6    6    0  505 -1.18553770920e+01 -4.22852046095e-01 +6.42767317349e+01  6.53622751468e+01  0.00000000000e+00 0.0000e+00 1.0000e+00
       21  1    1    2  503  501 -6.33409629337e+01 +2.36642856838e+01 +3.95983073694e+01  7.83588026249e+01  0.00000000000e+00 0.0000e+00 -1.0000e+00
        1  1    1    2  501    0 +2.52540576804e+01 +6.00388290744e+01 +3.30291596170e+01  7.30298145346e+01  0.00000000000e+00 0.0000e+00 -1.0000e+00
        3  1    1    2  502    0 -6.42928312852e+01 -9.20926708916e+01 +6.10117013772e+02  6.20368760239e+02  0.00000000000e+00 0.0000e+00 -1.0000e+00
#  0.1300000e+05  0.1300000e+05  0.6756196e+02  0.1300000e+05  0.1300000e+05
<mgrwt>
<rscale>  2 0.27588676e+03</rscale>
<asrwt>  1 0.67561959e+02</asrwt>
<pdfrwt beam="1">  1        2 0.30077173e+00 0.27006045e+03</pdfrwt>
<pdfrwt beam="2">  2        4        4 0.95720229e-02 0.63024722e-02 0.67561959e+02 0.27785666e+03</pdfrwt>
<totfact> 0.58065406e-01</totfact>
</mgrwt>
<clustering>
<clus scale="   65.158">  3  6 -1 -1</clus>
<clus scale="   67.562">  2  5  1 -1</clus>
<clus scale="  114.125">  4  7 -1 -1</clus>
<clus scale="  270.060">  1  3  2 -1</clus>
<clus scale="  277.857">  1  3  2 -1</clus>
</clustering>
<rwgt>
  <wgt id="1">4.08861e-06</wgt>
  <wgt id="2">2.73741e-06</wgt>
  <wgt id="3">1.96461e-06</wgt>
  <wgt id="4">4.21959e-06</wgt>
  <wgt id="5">2.8251e-06</wgt>
  <wgt id="6">2.02755e-06</wgt>
  <wgt id="7">4.19584e-06</wgt>
  <wgt id="8">2.8092e-06</wgt>
  <wgt id="9">2.01614e-06</wgt>
  <wgt id="10">3.64685e-06</wgt>
  <wgt id="11">2.8251e-06</wgt>
  <wgt id="12">2.31017e-06</wgt>
  <wgt id="13">2.8251e-06</wgt>
  <wgt id="14">2.83079e-06</wgt>
  <wgt id="15">2.82033e-06</wgt>
  <wgt id="16">2.81494e-06</wgt>
  <wgt id="17">2.83642e-06</wgt>
  <wgt id="18">2.8193e-06</wgt>
  <wgt id="19">2.83353e-06</wgt>
  <wgt id="20">2.82511e-06</wgt>
  <wgt id="21">2.82507e-06</wgt>
  <wgt id="22">2.82665e-06</wgt>
  <wgt id="23">2.82287e-06</wgt>
  <wgt id="24">2.83126e-06</wgt>
  <wgt id="25">2.82102e-06</wgt>
  <wgt id="26">2.8317e-06</wgt>
  <wgt id="27">2.81618e-06</wgt>
  <wgt id="28">2.83896e-06</wgt>
  <wgt id="29">2.8199e-06</wgt>
  <wgt id="30">2.84086e-06</wgt>
  <wgt id="31">2.80127e-06</wgt>
  <wgt id="32">2.81851e-06</wgt>
  <wgt id="33">2.83132e-06</wgt>
  <wgt id="34">2.79478e-06</wgt>
  <wgt id="35">2.87929e-06</wgt>
  <wgt id="36">2.83964e-06</wgt>
  <wgt id="37">2.81706e-06</wgt>
  <wgt id="38">2.82735e-06</wgt>
  <wgt id="39">2.82446e-06</wgt>
  <wgt id="40">2.83219e-06</wgt>
  <wgt id="41">2.82012e-06</wgt>
  <wgt id="42">2.82615e-06</wgt>
  <wgt id="43">2.82635e-06</wgt>
  <wgt id="44">2.82922e-06</wgt>
  <wgt id="45">2.8236e-06</wgt>
  <wgt id="46">2.82587e-06</wgt>
  <wgt id="47">2.8246e-06</wgt>
  <wgt id="48">2.82701e-06</wgt>
  <wgt id="49">2.8284e-06</wgt>
  <wgt id="50">2.82357e-06</wgt>
  <wgt id="51">2.80876e-06</wgt>
  <wgt id="52">2.83048e-06</wgt>
  <wgt id="53">2.82404e-06</wgt>
</rwgt>
</event>
<event>
 11      0 +2.8251000e-06 3.84233000e+02 7.54677100e-03 1.03305700e-01
        2 -1    0    0  501    0 +0.00000000000e+00 +0.00000000000e+00 +1.19943666680e+03  1.19943666680e+03  0.00000000000e+00 0.0000e+00 -1.0000e+00
        2 -1    0    0  503    0 +0.00000000000e+00 +0.00000000000e+00 -1.73182705970e+03  1.73182705970e+03  0.00000000000e+00 0.0000e+00 -1.0000e+00
       24  2    1    2    0    0 +2.57405271288e+01 -2.01673917889e+01 +5.05005294743e+01  9.97456580104e+01  7.95587480188e+01 0.0000e+00 0.0000e+00
        4  1    3    3  504    0 +4.23000469093e+01 -1.46007318338e+01 +6.37018800315e+01  7.78486021593e+01  0.00000000000e+00 0.0000e+00 -1.0000e+00
       -3  1    3    3    0  504 -1.65595197805e+01 -5.56665995512e+00 -1.32013505572e+01  2.18970558512e+01  0.00000000000e+00 0.0000e+00 1.0000e+00
       24  2    1    2    0    0 +3.94487257697e+02 -2.90285569672e+02 -1.47809201720e+03  1.55933280164e+03  8.29268745300e+01 0.0000e+00 0.0000e+00
        4  1    6    6  505    0 +3.76032298573e+02 -2.51026457308e+02 -1.31421830718e+03  1.38981449509e+03  0.00000000000e+00 0.0000e+00 -1.0000e+00
       -3  1    6    6    0  505 +1.84549591238e+01 -3.92591123643e+01 -1.63873710022e+02  1.69518306552e+02  0.00000000000e+00 0.0000e+00 1.0000e+00
       21  1    1    2  503  502 -1.35959863262e+02 +4.60490974142e+00 -3.24258268393e+01  1.39848932274e+02  0.00000000000e+00 0.0000e+00 -1.0000e+00
        1  1    1    2  501    0 +2.11656720712e+01 +3.28732757270e+02 +5.95492586123e+02  6.80532608700e+02  0.00000000000e+00 0.0000e+00 -1.0000e+00
        1  1    1    2  502    0 -3.05433593635e+02 -2.28847055499e+01 +3.32134335542e+02  4.51803725875e+02  0.00000000000e+00 0.0000e+00 -1.0000e+00
#  0.1300000e+05  0.1300000e+05  0.1347913e+03  0.1300000e+05  0.1300000e+05
<mgrwt>
<rscale>  2 0.26483533e+03</rscale>
<asrwt>  1 0.13479129e+03</asrwt>
<pdfrwt beam="1">  1        2 0.18452872e+00 0.86720093e+02</pdfrwt>
<pdfrwt beam="2">  2        2        2 0.26643493e+00 0.24049389e+00 0.13479129e+03 0.38423299e+03</pdfrwt>
<totfact> 0.42542099e-02</totfact>
</mgrwt>
<clustering>
<clus scale="   86.720">  1  3  2 -1</clus>
<clus scale="  134.791">  2  5  1 -1</clus>
<clus scale="  303.317">  1  7  2 -1</clus>
<clus scale="  375.723">  1  6  2 -1</clus>
<clus scale="  384.233">  1  3  2 -1</clus>
</clustering>
<rwgt>
  <wgt id="1">5.21456e-06</wgt>
  <wgt id="2">3.48259e-06</wgt>
  <wgt id="3">2.4952e-06</wgt>
  <wgt id="4">4.23009e-06</wgt>
  <wgt id="5">2.8251e-06</wgt>
  <wgt id="6">2.02412e-06</wgt>
  <wgt id="7">3.53754e-06</wgt>
  <wgt id="8">2.36258e-06</wgt>
  <wgt id="9">1.69273e-06</wgt>
  <wgt id="10">3.53826e-06</wgt>
  <wgt id="11">2.8251e-06</wgt>
  <wgt id="12">2.35478e-06</wgt>
  <wgt id="13">2.8251e-06</wgt>
  <wgt id="14">2.82811e-06</wgt>
  <wgt id="15">2.82266e-06</wgt>
  <wgt id="16">2.80569e-06</wgt>
  <wgt id="17">2.84681e-06</wgt>
  <wgt id="18">2.81043e-06</wgt>
  <wgt id="19">2.84686e-06</wgt>
  <wgt id="20">2.81831e-06</wgt>
  <wgt id="21">2.82966e-06</wgt>
  <wgt id="22">2.83409e-06</wgt>
  <wgt id="23">2.81243e-06</wgt>
  <wgt id="24">2.87357e-06</wgt>
  <wgt id="25">2.79532e-06</wgt>
  <wgt id="26">2.82599e-06</wgt>
  <wgt id="27">2.82403e-06</wgt>
  <wgt id="28">2.8776e-06</wgt>
  <wgt id="29">2.80617e-06</wgt>
  <wgt id="30">2.83145e-06</wgt>
  <wgt id="31">2.81725e-06</wgt>
  <wgt id="32">2.82536e-06</wgt>
  <wgt id="33">2.82491e-06</wgt>
  <wgt id="34">2.78072e-06</wgt>
  <wgt id="35">2.90737e-06</wgt>
  <wgt id="36">2.84584e-06</wgt>
  <wgt id="37">2.81367e-06</wgt>
  <wgt id="38">2.81435e-06</wgt>
  <wgt id="39">2.83105e-06</wgt>
  <wgt id="40">2.83042e-06</wgt>
  <wgt id="41">2.81995e-06</wgt>
  <wgt id="42">2.85031e-06</wgt>
  <wgt id="43">2.78569e-06</wgt>
  <wgt id="44">2.8307e-06</wgt>
  <wgt id="45">2.82322e-06</wgt>
  <wgt id="46">2.8226e-06</wgt>
  <wgt id="47">2.82664e-06</wgt>
  <wgt id="48">2.83002e-06</wgt>
  <wgt id="49">2.82853e-06</wgt>
  <wgt id="50">2.81802e-06</wgt>
  <wgt id="51">2.83674e-06</wgt>
  <wgt id="52">2.84362e-06</wgt>
  <wgt id="53">2.82055e-06</wgt>
</rwgt>
</event>
<event>
 12      0 +2.8251000e-06 2.06457000e+03 7.54677100e-03 8.24009500e-02
        2 -1    0    0  503    0 +0.00000000000e+00 +0.00000000000e+00 +1.72394101240e+03  1.72394101240e+03  0.00000000000e+00 0.0000e+00 -1.0000e+00
        2 -1    0    0  504    0 +0.00000000000e+00 +0.00000000000e+00 -2.24060651000e+03  2.24060651000e+03  0.00000000000e+00 0.0000e+00 -1.0000e+00
       24  2    1    2    0    0 -1.38165187018e+02 +3.77292717015e+01 +7.34578941996e+02  7.52654779090e+02  7.98115130566e+01 0.0000e+00 0.0000e+00
       12  1    3    3    0    0 -1.26225731362e+02 +9.11695580401e+00 +6.57250562799e+02  6.69323805374e+02  0.00000000000e+00 0.0000e+00 -1.0000e+00
      -11  1    3    3    0    0 -1.19394556555e+01 +2.86123158975e+01 +7.73283791968e+01  8.33309737157e+01  0.00000000000e+00 0.0000e+00 1.0000e+00
       24  2    1    2    0    0 +1.31046562457e+02 -7.18045988191e+01 -1.32754668493e+03  1.33834979890e+03  8.04417901783e+01 0.0000e+00 0.0000e+00
       16  1    6    6    0    0 +3.85496316171e+01 +1.26777823529e+00 -6.07037353027e+02  6.08261481051e+02  0.00000000000e+00 0.0000e+00 -1.0000e+00
      -15  1    6    6    0    0 +9.24969308395e+01 -7.30723770544e+01 -7.20509331903e+02  7.30088317851e+02  1.77700000000e+00 0.0000e+00 1.0000e+00
       21  1    1    2  503  502 +6.14961703634e+01 +4.86938590836e+01 +1.62690633007e+02  1.80613158297e+02  0.00000000000e+00 0.0000e+00 1.0000e+00
       21  1    1    2  504  501 -5.54232204350e+01 -3.50064467956e+01 -3.14899104110e+02  3.21649856910e+02  0.00000000000e+00 0.0000e+00 1.0000e+00
        1  1    1    2  501    0 +4.84672396565e+01 -8.07467779156e+01 -5.63558547531e+02  5.71373215997e+02  0.00000000000e+00 0.0000e+00 -1.0000e+00
        1  1    1    2  502    0 -4.74215650239e+01 +1.01134692745e+02 +7.92069263968e+02  7.99906713204e+02  0.00000000000e+00 0.0000e+00 -1.0000e+00
#  0.1300000e+05  0.1300000e+05  0.7813639e+02  0.6555292e+02  0.1300000e+05  0.1300000e+05
<mgrwt>
<rscale>  2 0.18445665e+04</rscale>
<asrwt>  2 0.65552915e+02 0.78136387e+02</asrwt>
<pdfrwt beam="1">  2        2        2 0.26522169e+00 0.23772159e+00 0.78136387e+02 0.20645704e+04</pdfrwt>
<pdfrwt beam="2">  2        2        2 0.34470869e+00 0.29506847e+00 0.65552915e+02 0.20645704e+04</pdfrwt>
<totfact> 0.88956742e-04</totfact>
</mgrwt>
<clustering>
<clus scale="   65.553">  2  6  1 -1</clus>
<clus scale="   78.136">  1  5  2 -1</clus>
<clus scale="   96.528">  3  7 -1 -1</clus>
<clus scale="  126.327">  4  8 -1 -1</clus>
<clus scale=" 1315.492">  1  3  2 -1</clus>
<clus scale=" 2064.570">  1  3  2 -1</clus>
</clustering>
<rwgt>
  <wgt id="1">4.73035e-06</wgt>
  <wgt id="2">3.46318e-06</wgt>
  <wgt id="3">2.64765e-06</wgt>
  <wgt id="4">3.8588e-06</wgt>
  <wgt id="5">2.8251e-06</wgt>
  <wgt id="6">2.15983e-06</wgt>
  <wgt id="7">3.22128e-06</wgt>
  <wgt id="8">2.35836e-06</wgt>
  <wgt id="9">1.803e-06</wgt>
  <wgt id="10">4.68185e-06</wgt>
  <wgt id="11">2.8251e-06</wgt>
  <wgt id="12">1.89571e-06</wgt>
  <wgt id="13">2.8251e-06</wgt>
  <wgt id="14">2.82843e-06</wgt>
  <wgt id="15">2.82237e-06</wgt>
  <wgt id="16">2.79891e-06</wgt>
  <wgt id="17">2.85458e-06</wgt>
  <wgt id="18">2.8088e-06</wgt>
  <wgt id="19">2.84941e-06</wgt>
  <wgt id="20">2.82145e-06</wgt>
  <wgt id="21">2.82753e-06</wgt>
  <wgt id="22">2.83554e-06</wgt>
  <wgt id="23">2.81038e-06</wgt>
  <wgt id="24">2.88078e-06</wgt>
  <wgt id="25">2.79113e-06</wgt>
  <wgt id="26">2.82658e-06</wgt>
  <wgt id="27">2.82321e-06</wgt>
  <wgt id="28">2.86652e-06</wgt>
  <wgt id="29">2.81e-06</wgt>
  <wgt id="30">2.82985e-06</wgt>
  <wgt id="31">2.8192e-06</wgt>
  <wgt id="32">2.81928e-06</wgt>
  <wgt id="33">2.83069e-06</wgt>
  <wgt id="34">2.7769e-06</wgt>
  <wgt id="35">2.91487e-06</wgt>
  <wgt id="36">2.83815e-06</wgt>
  <wgt id="37">2.81966e-06</wgt>
  <wgt id="38">2.81745e-06</wgt>
  <wgt id="39">2.8301e-06</wgt>
  <wgt id="40">2.83933e-06</wgt>
  <wgt id="41">2.81087e-06</wgt>
  <wgt id="42">2.84905e-06</wgt>
  <wgt id="43">2.78864e-06</wgt>
  <wgt id="44">2.83152e-06</wgt>
  <wgt id="45">2.82287e-06</wgt>
  <wgt id="46">2.82201e-06</wgt>
  <wgt id="47">2.82684e-06</wgt>
  <wgt id="48">2.84193e-06</wgt>
  <wgt id="49">2.82536e-06</wgt>
  <wgt id="50">2.81948e-06</wgt>
  <wgt id="51">2.83632e-06</wgt>
  <wgt id="52">2.84579e-06</wgt>
  <wgt id="53">2.82039e-06</wgt>
</rwgt>
</event>
<event>
 10      0 +2.8251000e-06 2.99522400e+02 7.54677100e-03 1.01871100e-01
       -3 -1    0    0    0  501 +0.00000000000e+00 +0.00000000000e+00 +5.81974108920e+02  5.81974108920e+02  0.00000000000e+00 0.0000e+00 1.0000e+00
        2 -1    0    0  501    0 +0.00000000000e+00 +0.00000000000e+00 -8.98330223670e+02  8.98330223670e+02  0.00000000000e+00 0.0000e+00 -1.0000e+00
       24  2    1    2    0    0 +1.95681135666e+02 -7.14834771318e+00 -1.79769145379e+02  2.75406131664e+02  7.20373930509e+01 0.0000e+00 0.0000e+00
       14  1    3    3    0    0 +1.89964024042e+02 -1.71717658859e+01 -1.82016834607e+02  2.63650010533e+02  0.00000000000e+00 0.0000e+00 -1.0000e+00
      -13  1    3    3    0    0 +5.71711162377e+00 +1.00234181728e+01 +2.24768922790e+00  1.17561211311e+01  0.00000000000e+00 0.0000e+00 1.0000e+00
       24  2    1    2    0    0 -1.13005831681e+02 +2.20876539668e+02 -1.38215162621e+02  2.90201027813e+02  5.96359086105e+01 0.0000e+00 0.0000e+00
        2  1    6    6  503    0 -7.38762229375e+01 +1.01241074055e+02 -9.44632075954e+01  1.56941864971e+02  0.00000000000e+00 0.0000e+00 -1.0000e+00
       -1  1    6    6    0  503 -3.91296087436e+01 +1.19635465613e+02 -4.37519550253e+01  1.33259162842e+02  0.00000000000e+00 0.0000e+00 1.0000e+00
        1  1    1    2  502    0 +2.65061594364e+02 -2.09024438239e+02 -3.02072230423e+02  4.52986199547e+02  0.00000000000e+00 0.0000e+00 -1.0000e+00
       -4  1    1    2    0  502 -3.47736898348e+02 -4.70375371520e+00 +3.03700423672e+02  4.61710973566e+02  0.00000000000e+00 0.0000e+00 1.0000e+00
#  0.1300000e+05  0.1300000e+05  0.1300000e+05  0.1300000e+05
<mgrwt>
<rscale>  2 0.29484564e+03</rscale>
<asrwt>0</asrwt>
<pdfrwt beam="1">  1        2 0.13820465e+00 0.22126575e+03</pdfrwt>
<pdfrwt beam="2">  1       -3 0.89534478e-01 0.23564186e+03</pdfrwt>
<totfact> 0.30797538e-01</totfact>
</mgrwt>
<clustering>
<clus scale="  221.266">  2  3  1 -1</clus>
<clus scale="  235.642">  1  4  2 -1</clus>
<clus scale="  380.720">  2  5  1 -1</clus>
<clus scale="  380.720">  2  3  1 -1</clus>
</clustering>
<rwgt>
  <wgt id="1">4.59518e-06</wgt>
  <wgt id="2">3.08907e-06</wgt>
  <wgt id="3">2.22304e-06</wgt>
  <wgt id="4">4.2025e-06</wgt>
  <wgt id="5">2.8251e-06</wgt>
  <wgt id="6">2.03307e-06</wgt>
  <wgt id="7">3.83575e-06</wgt>
  <wgt id="8">2.57855e-06</wgt>
  <wgt id="9">1.85565e-06</wgt>
  <wgt id="10">2.8251e-06</wgt>
  <wgt id="11">2.8251e-06</wgt>
  <wgt id="12">2.8251e-06</wgt>
  <wgt id="13">2.8251e-06</wgt>
  <wgt id="14">2.83368e-06</wgt>
  <wgt id="15">2.81804e-06</wgt>
  <wgt id="16">2.78377e-06</wgt>
  <wgt id="17">2.87153e-06</wgt>
  <wgt id="18">2.8599e-06</wgt>
  <wgt id="19">2.77303e-06</wgt>
  <wgt id="20">2.78621e-06</wgt>
  <wgt id="21">2.8513e-06</wgt>
  <wgt id="22">2.87953e-06</wgt>
  <wgt id="23">2.74794e-06</wgt>
  <wgt id="24">2.78829e-06</wgt>
  <wgt id="25">2.84729e-06</wgt>
  <wgt id="26">2.81974e-06</wgt>
  <wgt id="27">2.83246e-06</wgt>
  <wgt id="28">2.85136e-06</wgt>
  <wgt id="29">2.81562e-06</wgt>
  <wgt id="30">2.81713e-06</wgt>
  <wgt id="31">2.83465e-06</wgt>
  <wgt id="32">2.82149e-06</wgt>
  <wgt id="33">2.82861e-06</wgt>
  <wgt id="34">2.80562e-06</wgt>
  <wgt id="35">2.86543e-06</wgt>
  <wgt id="36">2.82732e-06</wgt>
  <wgt id="37">2.82482e-06</wgt>
  <wgt id="38">2.7773e-06</wgt>
  <wgt id="39">2.84797e-06</wgt>
  <wgt id="40">2.82975e-06</wgt>
  <wgt id="41">2.82263e-06</wgt>
  <wgt id="42">2.82901e-06</wgt>
  <wgt id="43">2.81356e-06</wgt>
  <wgt id="44">2.82241e-06</wgt>
  <wgt id="45">2.8256e-06</wgt>
  <wgt id="46">2.81396e-06</wgt>
  <wgt id="47">2.82599e-06</wgt>
  <wgt id="48">2.8061e-06</wgt>
  <wgt id="49">2.8374e-06</wgt>
  <wgt id="50">2.83324e-06</wgt>
  <wgt id="51">2.83078e-06</wgt>
  <wgt id="52">2.87217e-06</wgt>
  <wgt id="53">2.87631e-06</wgt>
</rwgt>
</event>
<event>
 12      0 +2.8251000e-06 6.97260700e+02 7.54677100e-03 9.22705300e-02
       21 -1    0    0  501  503 +0.00000000000e+00 +0.00000000000e+00 +4.06385369560e+02  4.06385369560e+02  0.00000000000e+00 0.0000e+00 -1.0000e+00
        2 -1    0    0  502    0 +0.00000000000e+00 +0.00000000000e+00 -1.83005313530e+03  1.83005313530e+03  0.00000000000e+00 0.0000e+00 -1.0000e+00
       24  2    1    2    0    0 +3.77403745744e+00 -4.49394448218e+02 -2.13304231930e+02  5.04331433520e+02  8.29571336851e+01 0.0000e+00 0.0000e+00
        4  1    3    3  505    0 -1.60039925317e+01 -4.20613157686e+02 -2.06130437799e+02  4.68680395987e+02  0.00000000000e+00 0.0000e+00 -1.0000e+00
       -3  1    3    3    0  505 +1.97780299891e+01 -2.87812905319e+01 -7.17379413130e+00  3.56510375328e+01  0.00000000000e+00 0.0000e+00 1.0000e+00
       24  2    1    2    0    0 +1.25904579212e+02 +2.41060136136e+02 -7.55369940220e+02  8.06808992569e+02  7.99690665340e+01 0.0000e+00 0.0000e+00
        4  1    6    6  506    0 +1.05037457284e+02 +2.11758363755e+02 -7.13353906719e+02  7.51497350816e+02  0.00000000000e+00 0.0000e+00 -1.0000e+00
       -3  1    6    6    0  506 +2.08671219282e+01 +2.93017723816e+01 -4.20160335012e+01  5.53116417532e+01  0.00000000000e+00 0.0000e+00 1.0000e+00
       21  1    1    2  504  503 -5.00496303430e+01 -3.95338980511e+01 +4.28089378438e+01  7.68147105175e+01  0.00000000000e+00 0.0000e+00 1.0000e+00
        1  1    1    2  501    0 +7.11742849510e+01 +2.66272032933e+02 -3.62548197572e+02  4.55420432044e+02  0.00000000000e+00 0.0000e+00 -1.0000e+00
        3  1    1    2  502    0 -1.57655693886e+02 +2.96334360130e+01 -2.33612294409e+02  2.83386948259e+02  0.00000000000e+00 0.0000e+00 -1.0000e+00
       -4  1    1    2    0  504 +6.85242260849e+00 -4.80372588132e+01 +9.83579605469e+01  1.09675987950e+02  0.00000000000e+00 0.0000e+00 1.0000e+00
#  0.1300000e+05  0.1300000e+05  0.6359308e+02  0.1300000e+05  0.1300000e+05  0.1217069e+03
<mgrwt>
<rscale>  2 0.65991133e+03</rscale>
<asrwt>  2 0.63593079e+02 0.12170690e+03</asrwt>
<pdfrwt beam="1">  2       21        4 0.62520826e-01 0.36655899e-01 0.12170690e+03 0.69726075e+03</pdfrwt>
<pdfrwt beam="2">  1        2 0.28154664e+00 0.55944409e+03</pdfrwt>
<totfact> 0.37695298e-02</totfact>
</mgrwt>
<clustering>
<clus scale="   63.593">  5  8 -1 -1</clus>
<clus scale="  121.707">  1  5  2 -1</clus>
<clus scale="  163.392">  3  7 -1 -1</clus>
<clus scale="  256.926">  4  6 -1 -1</clus>
<clus scale="  559.444">  2  4  1 -1</clus>
<clus scale="  697.261">  1  3  2 -1</clus>
</clustering>
<rwgt>
  <wgt id="1">4.31418e-06</wgt>
  <wgt id="2">3.02675e-06</wgt>
  <wgt id="3">2.24382e-06</wgt>
  <wgt id="4">4.02676e-06</wgt>
  <wgt id="5">2.8251e-06</wgt>
  <wgt id="6">2.09433e-06</wgt>
  <wgt id="7">3.72538e-06</wgt>
  <wgt id="8">2.61366e-06</wgt>
  <wgt id="9">1.93758e-06</wgt>
  <wgt id="10">4.59922e-06</wgt>
  <wgt id="11">2.8251e-06</wgt>
  <wgt id="12">1.91692e-06</wgt>
  <wgt id="13">2.8251e-06</wgt>
  <wgt id="14">2.83253e-06</wgt>
  <wgt id="15">2.81894e-06</wgt>
  <wgt id="16">2.81303e-06</wgt>
  <wgt id="17">2.83877e-06</wgt>
  <wgt id="18">2.81733e-06</wgt>
  <wgt id="19">2.83653e-06</wgt>
  <wgt id="20">2.82412e-06</wgt>
  <wgt id="21">2.82581e-06</wgt>
  <wgt id="22">2.82876e-06</wgt>
  <wgt id="23">2.81989e-06</wgt>
  <wgt id="24">2.8436e-06</wgt>
  <wgt id="25">2.81358e-06</wgt>
  <wgt id="26">2.82689e-06</wgt>
  <wgt id="27">2.8228e-06</wgt>
  <wgt id="28">2.84799e-06</wgt>
  <wgt id="29">2.81653e-06</wgt>
  <wgt id="30">2.81317e-06</wgt>
  <wgt id="31">2.83958e-06</wgt>
  <wgt id="32">2.82407e-06</wgt>
  <wgt id="33">2.826e-06</wgt>
  <wgt id="34">2.82099e-06</wgt>
  <wgt id="35">2.83461e-06</wgt>
  <wgt id="36">2.81734e-06</wgt>
  <wgt id="37">2.83131e-06</wgt>
  <wgt id="38">2.81203e-06</wgt>
  <wgt id="39">2.83214e-06</wgt>
  <wgt id="40">2.82426e-06</wgt>
  <wgt id="41">2.82482e-06</wgt>
  <wgt id="42">2.82713e-06</wgt>
  <wgt id="43">2.82336e-06</wgt>
  <wgt id="44">2.82502e-06</wgt>
  <wgt id="45">2.82543e-06</wgt>
  <wgt id="46">2.82567e-06</wgt>
  <wgt id="47">2.82472e-06</wgt>
  <wgt id="48">2.83605e-06</wgt>
  <wgt id="49">2.82349e-06</wgt>
  <wgt id="50">2.84836e-06</wgt>
  <wgt id="51">2.8103e-06</wgt>
  <wgt id="52">2.83734e-06</wgt>
  <wgt id="53">2.82213e-06</wgt>
</rwgt>
</event>
<event>
 11      0 +2.8251000e-06 3.08628900e+02 7.54677100e-03 1.02796600e-01
        2 -1    0    0  501    0 +0.00000000000e+00 +0.00000000000e+00 +3.51718604090e+02  3.51718604090e+02  0.00000000000e+00 0.0000e+00 -1.0000e+00
        2 -1    0    0  503    0 +0.00000000000e+00 +0.00000000000e+00 -1.63552965350e+03  1.63552965350e+03  0.00000000000e+00 0.0000e+00 -1.0000e+00
       24  2    1    2    0    0 +4.03863336301e+01 +6.39071699018e+01 -1.10789351834e+03  1.11338966292e+03  8.05810847254e+01 0.0000e+00 0.0000e+00
       12  1    3    3    0    0 +4.06578570793e+01 +6.95822959119e+01 -1.10285546330e+03  1.10579606175e+03  0.00000000000e+00 0.0000e+00 -1.0000e+00
      -11  1    3    3    0    0 -2.71523449232e-01 -5.67512601013e+00 -5.03805503839e+00  7.59360117363e+00  0.00000000000e+00 0.0000e+00 1.0000e+00
       24  2    1    2    0    0 -1.51779824910e+02 -9.72915925019e+01 +2.32707688771e+02  3.05252129868e+02  8.07664853446e+01 0.0000e+00 0.0000e+00
       12  1    6    6    0    0 -7.72605083091e+01 -8.48466609492e+01 +1.78739293781e+02  2.12404983839e+02  0.00000000000e+00 0.0000e+00 -1.0000e+00
      -11  1    6    6    0    0 -7.45193166006e+01 -1.24449315527e+01 +5.39683949898e+01  9.28471460291e+01  0.00000000000e+00 0.0000e+00 1.0000e+00
       21  1    1    2  503  502 +3.60510874226e+01 +4.00655306861e+01 -1.37831574856e+02  1.47994833291e+02  0.00000000000e+00 0.0000e+00 1.0000e+00
        1  1    1    2  501    0 -1.04484674613e+01 +4.39845021862e+01 -3.10192727485e+02  3.13469831227e+02  0.00000000000e+00 0.0000e+00 -1.0000e+00
        1  1    1    2  502    0 +8.57908713184e+01 -5.06656102722e+01 +3.93990824991e+01  1.07141800282e+02  0.00000000000e+00 0.0000e+00 -1.0000e+00
#  0.1300000e+05  0.1300000e+05  0.5392734e+02  0.1300000e+05  0.1300000e+05
<mgrwt>
<rscale>  2 0.27502323e+03</rscale>
<asrwt>  1 0.53927342e+02</asrwt>
<pdfrwt beam="1">  1        2 0.54110554e-01 0.30862890e+03</pdfrwt>
<pdfrwt beam="2">  2        2        2 0.25161995e+00 0.22599091e+00 0.53927342e+02 0.30862890e+03</pdfrwt>
<totfact> 0.30314928e-01</totfact>
</mgrwt>
<clustering>
<clus scale="   45.261">  3  6 -1 -1</clus>
<clus scale="   53.927">  2  5  1 -1</clus>
<clus scale="   99.973">  4  7 -1 -1</clus>
<clus scale="  194.611">  2  3  1 -1</clus>
<clus scale="  308.629">  1  3  2 -1</clus>
</clustering>
<rwgt>
  <wgt id="1">4.69789e-06</wgt>
  <wgt id="2">3.14473e-06</wgt>
  <wgt id="3">2.25665e-06</wgt>
  <wgt id="4">4.22039e-06</wgt>
  <wgt id="5">2.8251e-06</wgt>
  <wgt id="6">2.02729e-06</wgt>
  <wgt id="7">3.82203e-06</wgt>
  <wgt id="8">2.55844e-06</wgt>
  <wgt id="9">1.83593e-06</wgt>
  <wgt id="10">3.68982e-06</wgt>
  <wgt id="11">2.8251e-06</wgt>
  <wgt id="12">2.29377e-06</wgt>
  <wgt id="13">2.8251e-06</wgt>
  <wgt id="14">2.82829e-06</wgt>
  <wgt id="15">2.82247e-06</wgt>
  <wgt id="16">2.81662e-06</wgt>
  <wgt id="17">2.83444e-06</wgt>
  <wgt id="18">2.81202e-06</wgt>
  <wgt id="19">2.84431e-06</wgt>
  <wgt id="20">2.81672e-06</wgt>
  <wgt id="21">2.83067e-06</wgt>
  <wgt id="22">2.83237e-06</wgt>
  <wgt id="23">2.81471e-06</wgt>
  <wgt id="24">2.8653e-06</wgt>
  <wgt id="25">2.80028e-06</wgt>
  <wgt id="26">2.82466e-06</wgt>
  <wgt id="27">2.82559e-06</wgt>
  <wgt id="28">2.86583e-06</wgt>
  <wgt id="29">2.81023e-06</wgt>
  <wgt id="30">2.83021e-06</wgt>
  <wgt id="31">2.81836e-06</wgt>
  <wgt id="32">2.82752e-06</wgt>
  <wgt id="33">2.82262e-06</wgt>
  <wgt id="34">2.78806e-06</wgt>
  <wgt id="35">2.89312e-06</wgt>
  <wgt id="36">2.83383e-06</wgt>
  <wgt id="37">2.82149e-06</wgt>
  <wgt id="38">2.81743e-06</wgt>
  <wgt id="39">2.82914e-06</wgt>
  <wgt id="40">2.82885e-06</wgt>
  <wgt id="41">2.82145e-06</wgt>
  <wgt id="42">2.84635e-06</wgt>
  <wgt id="43">2.78783e-06</wgt>
  <wgt id="44">2.83339e-06</wgt>
  <wgt id="45">2.82189e-06</wgt>
  <wgt id="46">2.82351e-06</wgt>
  <wgt id="47">2.82627e-06</wgt>
  <wgt id="48">2.81025e-06</wgt>
  <wgt id="49">2.83532e-06</wgt>
  <wgt id="50">2.81624e-06</wgt>
  <wgt id="51">2.83672e-06</wgt>
  <wgt id="52">2.83302e-06</wgt>
  <wgt id="53">2.8231e-06</wgt>
</rwgt>
</event>
<event>
 10      0 +2.8251000e-06 6.87702300e+02 7.54677100e-03 9.78179100e-02
        2 -1    0    0  501    0 +0.00000000000e+00 +0.00000000000e+00 +1.56466698070e+03  1.56466698070e+03  0.00000000000e+00 0.0000e+00 -1.0000e+00
        2 -1    0    0  502    0 +0.00000000000e+00 +0.00000000000e+00 -2.60950727490e+02  2.60950727490e+02  0.00000000000e+00 0.0000e+00 -1.0000e+00
       24  2    1    2    0    0 -9.46778167191e+00 +3.64630964698e+01 -1.92583566126e+02  2.12099837871e+02  8.04904652069e+01 0.0000e+00 0.0000e+00
        2  1    3    3  503    0 -3.53106747004e+01 +3.31465184055e+01 -1.72594143712e+02  1.79260352209e+02  0.00000000000e+00 0.0000e+00 -1.0000e+00
       -1  1    3    3    0  503 +2.58428930285e+01 +3.31657806434e+00 -1.99894224134e+01  3.28394856622e+01  0.00000000000e+00 0.0000e+00 1.0000e+00
       24  2    1    2    0    0 -2.33336408516e+01 +2.53629945639e+00 +9.23745078077e+02  9.27405389544e+02  7.88980080523e+01 0.0000e+00 0.0000e+00
        2  1    6    6  504    0 -3.06329384697e+00 +2.48991889752e+01 +7.85648223742e+02  7.86048652979e+02  0.00000000000e+00 0.0000e+00 -1.0000e+00
       -1  1    6    6    0  504 -2.02703470047e+01 -2.23628895188e+01 +1.38096854335e+02  1.41356736565e+02  0.00000000000e+00 0.0000e+00 1.0000e+00
        1  1    1    2  501    0 +1.24216801341e+01 +6.14265923641e+01 +5.79993819487e+02  5.83369826980e+02  0.00000000000e+00 0.0000e+00 -1.0000e+00
        1  1    1    2  502    0 +2.03797423894e+01 -1.00425988290e+02 -7.43907822837e+00  1.02742653795e+02  0.00000000000e+00 0.0000e+00 -1.0000e+00
#  0.1300000e+05  0.1300000e+05  0.1300000e+05  0.1300000e+05
<mgrwt>
<rscale>  2 0.40625303e+03</rscale>
<asrwt>0</asrwt>
<pdfrwt beam="1">  1        2 0.24071800e+00 0.83750019e+02</pdfrwt>
<pdfrwt beam="2">  1        2 0.40146266e-01 0.68770235e+03</pdfrwt>
<totfact> 0.26813644e+00</totfact>
</mgrwt>
<clustering>
<clus scale="   61.261">  3  5 -1 -1</clus>
<clus scale="   83.750">  1  4  2 -1</clus>
<clus scale="  101.869">  1  6  2 -1</clus>
<clus scale="  687.702">  1  3  2 -1</clus>
</clustering>
<rwgt>
  <wgt id="1">4.67687e-06</wgt>
  <wgt id="2">3.20165e-06</wgt>
  <wgt id="3">2.33302e-06</wgt>
  <wgt id="4">4.12682e-06</wgt>
  <wgt id="5">2.8251e-06</wgt>
  <wgt id="6">2.05863e-06</wgt>
  <wgt id="7">3.69455e-06</wgt>
  <wgt id="8">2.52918e-06</wgt>
  <wgt id="9">1.843e-06</wgt>
  <wgt id="10">2.8251e-06</wgt>
  <wgt id="11">2.8251e-06</wgt>
  <wgt id="12">2.8251e-06</wgt>
  <wgt id="13">2.8251e-06</wgt>
  <wgt id="14">2.82849e-06</wgt>
  <wgt id="15">2.82228e-06</wgt>
  <wgt id="16">2.81897e-06</wgt>
  <wgt id="17">2.83181e-06</wgt>
  <wgt id="18">2.81274e-06</wgt>
  <wgt id="19">2.84339e-06</wgt>
  <wgt id="20">2.81759e-06</wgt>
  <wgt id="21">2.83015e-06</wgt>
  <wgt id="22">2.83193e-06</wgt>
  <wgt id="23">2.81541e-06</wgt>
  <wgt id="24">2.86262e-06</wgt>
  <wgt id="25">2.80191e-06</wgt>
  <wgt id="26">2.82482e-06</wgt>
  <wgt id="27">2.82546e-06</wgt>
  <wgt id="28">2.86338e-06</wgt>
  <wgt id="29">2.81115e-06</wgt>
  <wgt id="30">2.8309e-06</wgt>
  <wgt id="31">2.81748e-06</wgt>
  <wgt id="32">2.82822e-06</wgt>
  <wgt id="33">2.82208e-06</wgt>
  <wgt id="34">2.7901e-06</wgt>
  <wgt id="35">2.88927e-06</wgt>
  <wgt id="36">2.83225e-06</wgt>
  <wgt id="37">2.82191e-06</wgt>
  <wgt id="38">2.81761e-06</wgt>
  <wgt id="39">2.82902e-06</wgt>
  <wgt id="40">2.82791e-06</wgt>
  <wgt id="41">2.82251e-06</wgt>
  <wgt id="42">2.84535e-06</wgt>
  <wgt id="43">2.78882e-06</wgt>
  <wgt id="44">2.83271e-06</wgt>
  <wgt id="45">2.82222e-06</wgt>
  <wgt id="46">2.8229e-06</wgt>
  <wgt id="47">2.8267e-06</wgt>
  <wgt id="48">2.80805e-06</wgt>
  <wgt id="49">2.83595e-06</wgt>
  <wgt id="50">2.81669e-06</wgt>
  <wgt id="51">2.83473e-06</wgt>
  <wgt id="52">2.83195e-06</wgt>
  <wgt id="53">2.82332e-06</wgt>
</rwgt>
</event>
<event>
 10      0 +2.8251000e-06 2.78209300e+02 7.54677100e-03 1.04808200e-01
        2 -1    0    0  501    0 +0.00000000000e+00 +0.00000000000e+00 +1.77364768070e+03  1.77364768070e+03  0.00000000000e+00 0.0000e+00 -1.0000e+00
        2 -1    0    0  502    0 +0.00000000000e+00 +0.00000000000e+00 -8.30160177670e+02  8.30160177670e+02  0.00000000000e+00 0.0000e+00 -1.0000e+00
       24  2    1    2    0    0 -9.52154820718e+01 +1.03458026617e+01 +3.98302414269e+01  1.19404329620e+02  5.91432341105e+01 0.0000e+00 0.0000e+00
       12  1    3    3    0    0 -8.79024586077e+01 +2.88585584811e+01 +3.12150631863e+01  9.76424026569e+01  0.00000000000e+00 0.0000e+00 -1.0000e+00
      -11  1    3    3    0    0 -7.31302346413e+00 -1.85127558194e+01 +8.61517824062e+00  2.17619269634e+01  0.00000000000e+00 0.0000e+00 1.0000e+00
       24  2    1    2    0    0 +1.46282285157e+02 +1.65331279832e+02 +1.46615443963e+03  1.48490713697e+03  8.12860720569e+01 0.0000e+00 0.0000e+00
       16  1    6    6    0    0 +1.30354396119e+02 +9.56485190918e+01 +1.10274300658e+03  1.11453265827e+03  0.00000000000e+00 0.0000e+00 -1.0000e+00
      -15  1    6    6    0    0 +1.59278890381e+01 +6.96827607402e+01 +3.63411433056e+02  3.70374478696e+02  1.77700000000e+00 0.0000e+00 1.0000e+00
        1  1    1    2  501    0 +4.42839153661e+01 -4.04911532750e+02 -6.22641461956e+02  7.44040862225e+02  0.00000000000e+00 0.0000e+00 -1.0000e+00
        1  1    1    2  502    0 -9.53507184517e+01 +2.29234450256e+02 +6.01442839250e+01  2.55455529559e+02  0.00000000000e+00 0.0000e+00 -1.0000e+00
#  0.1300000e+05  0.1300000e+05  0.1300000e+05  0.1300000e+05
<mgrwt>
<rscale>  2 0.23744623e+03</rscale>
<asrwt>0</asrwt>
<pdfrwt beam="1">  1        2 0.27286887e+00 0.23433940e+03</pdfrwt>
<pdfrwt beam="2">  1        2 0.12771695e+00 0.12434265e+03</pdfrwt>
<totfact> 0.60993603e-01</totfact>
</mgrwt>
<clustering>
<clus scale="  124.343">  2  3  1 -1</clus>
<clus scale="  234.339">  1  4  2 -1</clus>
<clus scale="  330.292">  1  6  2 -1</clus>
<clus scale="  330.292">  1  3  2 -1</clus>
</clustering>
<rwgt>
  <wgt id="1">5.14068e-06</wgt>
  <wgt id="2">3.41014e-06</wgt>
  <wgt id="3">2.43207e-06</wgt>
  <wgt id="4">4.25875e-06</wgt>
  <wgt id="5">2.8251e-06</wgt>
  <wgt id="6">2.01482e-06</wgt>
  <wgt id="7">3.61194e-06</wgt>
  <wgt id="8">2.39603e-06</wgt>
  <wgt id="9">1.70882e-06</wgt>
  <wgt id="10">2.8251e-06</wgt>
  <wgt id="11">2.8251e-06</wgt>
  <wgt id="12">2.8251e-06</wgt>
  <wgt id="13">2.8251e-06</wgt>
  <wgt id="14">2.82806e-06</wgt>
  <wgt id="15">2.82267e-06</wgt>
  <wgt id="16">2.80916e-06</wgt>
  <wgt id="17">2.84294e-06</wgt>
  <wgt id="18">2.8108e-06</wgt>
  <wgt id="19">2.84633e-06</wgt>
  <wgt id="20">2.81617e-06</wgt>
  <wgt id="21">2.83112e-06</wgt>
  <wgt id="22">2.83346e-06</wgt>
  <wgt id="23">2.81319e-06</wgt>
  <wgt id="24">2.87094e-06</wgt>
  <wgt id="25">2.79692e-06</wgt>
  <wgt id="26">2.82531e-06</wgt>
  <wgt id="27">2.82487e-06</wgt>
  <wgt id="28">2.87504e-06</wgt>
  <wgt id="29">2.80698e-06</wgt>
  <wgt id="30">2.83091e-06</wgt>
  <wgt id="31">2.81782e-06</wgt>
  <wgt id="32">2.8261e-06</wgt>
  <wgt id="33">2.82415e-06</wgt>
  <wgt id="34">2.78319e-06</wgt>
  <wgt id="35">2.90284e-06</wgt>
  <wgt id="36">2.84671e-06</wgt>
  <wgt id="37">2.81366e-06</wgt>
  <wgt id="38">2.81429e-06</wgt>
  <wgt id="39">2.83084e-06</wgt>
  <wgt id="40">2.82972e-06</wgt>
  <wgt id="41">2.82066e-06</wgt>
  <wgt id="42">2.84951e-06</wgt>
  <wgt id="43">2.78587e-06</wgt>
  <wgt id="44">2.83259e-06</wgt>
  <wgt id="45">2.8224e-06</wgt>
  <wgt id="46">2.82371e-06</wgt>
  <wgt id="47">2.82606e-06</wgt>
  <wgt id="48">2.82331e-06</wgt>
  <wgt id="49">2.8306e-06</wgt>
  <wgt id="50">2.81677e-06</wgt>
  <wgt id="51">2.83783e-06</wgt>
  <wgt id="52">2.84039e-06</wgt>
  <wgt id="53">2.82134e-06</wgt>
</rwgt>
</event>
<event>
 11      0 +2.8251000e-06 1.73347900e+02 7.54677100e-03 1.10246800e-01
        2 -1    0    0  502    0 +0.00000000000e+00 +0.00000000000e+00 +9.46880700890e+02  9.46880700890e+02  0.00000000000e+00 0.0000e+00 -1.0000e+00
        4 -1    0    0  503    0 +0.00000000000e+00 +0.00000000000e+00 -4.13534664850e+02  4.13534664850e+02  0.00000000000e+00 0.0000e+00 -1.0000e+00
       24  2    1    2    0    0 -8.13160983105e+01 -3.56852350347e+01 -1.73134627802e+02  2.12397759616e+02  8.51555347707e+01 0.0000e+00 0.0000e+00
       16  1    3    3    0    0 -7.91998113067e+01 -5.29025160915e+01 -1.69736088835e+02  1.94632027613e+02  0.00000000000e+00 0.0000e+00 -1.0000e+00
      -15  1    3    3    0    0 -2.11628700376e+00 +1.72172810568e+01 -3.39853896662e+00  1.77657320030e+01  1.77700000000e+00 0.0000e+00 1.0000e+00
       24  2    1    2    0    0 +5.17832069695e+01 -1.42765383111e+00 +3.41672766710e+02  3.54906228174e+02  8.08369505023e+01 0.0000e+00 0.0000e+00
       16  1    6    6    0    0 +3.59667178010e+01 +3.75949022389e+01 +1.53707009695e+02  1.62273923639e+02  0.00000000000e+00 0.0000e+00 -1.0000e+00
      -15  1    6    6    0    0 +1.58164891686e+01 -3.90225560700e+01 +1.87965757014e+02  1.92632304535e+02  1.77700000000e+00 0.0000e+00 1.0000e+00
       21  1    1    2  503  501 +1.21284135590e+01 -1.23626030488e+02 +2.09505546530e+02  2.43563272799e+02  0.00000000000e+00 0.0000e+00 -1.0000e+00
        1  1    1    2  501    0 +4.80065040020e+01 -9.90974616744e+01 +2.48506907133e+02  2.71809886188e+02  0.00000000000e+00 0.0000e+00 -1.0000e+00
        3  1    1    2  502    0 -3.06020262200e+01 +2.59836381028e+02 -9.32045565303e+01  2.77738218963e+02  0.00000000000e+00 0.0000e+00 -1.0000e+00
#  0.1300000e+05  0.1300000e+05  0.4812543e+02  0.1300000e+05  0.1300000e+05
<mgrwt>
<rscale>  2 0.16405483e+03</rscale>
<asrwt>  1 0.48125430e+02</asrwt>
<pdfrwt beam="1">  1        2 0.14567395e+00 0.95610679e+02</pdfrwt>
<pdfrwt beam="2">  1        4 0.63620718e-01 0.11918573e+03</pdfrwt>
<totfact> 0.63447520e-02</totfact>
</mgrwt>
<clustering>
<clus scale="   48.125">  5  6 -1 -1</clus>
<clus scale="   95.611">  1  4  2 -1</clus>
<clus scale="  119.186">  2  3  1 -1</clus>
<clus scale="  246.889">  2  7  1 -1</clus>
<clus scale="  252.123">  1  3  2 -1</clus>
</clustering>
<rwgt>
  <wgt id="1">4.28504e-06</wgt>
  <wgt id="2">2.77215e-06</wgt>
  <wgt id="3">1.94437e-06</wgt>
  <wgt id="4">4.36689e-06</wgt>
  <wgt id="5">2.8251e-06</wgt>
  <wgt id="6">1.98151e-06</wgt>
  <wgt id="7">4.24831e-06</wgt>
  <wgt id="8">2.74839e-06</wgt>
  <wgt id="9">1.92771e-06</wgt>
  <wgt id="10">3.71389e-06</wgt>
  <wgt id="11">2.8251e-06</wgt>
  <wgt id="12">2.28508e-06</wgt>
  <wgt id="13">2.8251e-06</wgt>
  <wgt id="14">2.83377e-06</wgt>
  <wgt id="15">2.81794e-06</wgt>
  <wgt id="16">2.8208e-06</wgt>
  <wgt id="17">2.82986e-06</wgt>
  <wgt id="18">2.81991e-06</wgt>
  <wgt id="19">2.83273e-06</wgt>
  <wgt id="20">2.82078e-06</wgt>
  <wgt id="21">2.82799e-06</wgt>
  <wgt id="22">2.82494e-06</wgt>
  <wgt id="23">2.8253e-06</wgt>
  <wgt id="24">2.8231e-06</wgt>
  <wgt id="25">2.82614e-06</wgt>
  <wgt id="26">2.82935e-06</wgt>
  <wgt id="27">2.81931e-06</wgt>
  <wgt id="28">2.84562e-06</wgt>
  <wgt id="29">2.8176e-06</wgt>
  <wgt id="30">2.80911e-06</wgt>
  <wgt id="31">2.84407e-06</wgt>
  <wgt id="32">2.82763e-06</wgt>
  <wgt id="33">2.8227e-06</wgt>
  <wgt id="34">2.83781e-06</wgt>
  <wgt id="35">2.80343e-06</wgt>
  <wgt id="36">2.81803e-06</wgt>
  <wgt id="37">2.83041e-06</wgt>
  <wgt id="38">2.80548e-06</wgt>
  <wgt id="39">2.83455e-06</wgt>
  <wgt id="40">2.81795e-06</wgt>
  <wgt id="41">2.83428e-06</wgt>
  <wgt id="42">2.82005e-06</wgt>
  <wgt id="43">2.83514e-06</wgt>
  <wgt id="44">2.82425e-06</wgt>
  <wgt id="45">2.82557e-06</wgt>
  <wgt id="46">2.83008e-06</wgt>
  <wgt id="47">2.82223e-06</wgt>
  <wgt id="48">2.82516e-06</wgt>
  <wgt id="49">2.82608e-06</wgt>
  <wgt id="50">2.86057e-06</wgt>
  <wgt id="51">2.79692e-06</wgt>
  <wgt id="52">2.83365e-06</wgt>
  <wgt id="53">2.82282e-06</wgt>
</rwgt>
</event>
<event>
 11      0 +2.8251000e-06 2.20107700e+03 7.54677100e-03 8.41870300e-02
        2 -1    0    0  501    0 +0.00000000000e+00 +0.00000000000e+00 +1.01449154270e+03  1.01449154270e+03  0.00000000000e+00 0.0000e+00 -1.0000e+00
        2 -1    0    0  503    0 +0.00000000000e+00 +0.00000000000e+00 -2.80656329420e+03  2.80656329420e+03  0.00000000000e+00 0.0000e+00 -1.0000e+00
       24  2    1    2    0    0 -1.09463473291e+02 +2.82143856897e+01 -1.23239486298e+03  1.24031562165e+03  8.25072085968e+01 0.0000e+00 0.0000e+00
       16  1    3    3    0    0 -9.38586379915e+01 +4.38685999698e+01 -1.16010414941e+03  1.16472122650e+03  0.00000000000e+00 0.0000e+00 -1.0000e+00
      -15  1    3    3    0    0 -1.56048353000e+01 -1.56542142801e+01 -7.22907135651e+01  7.55943951442e+01  1.77700000000e+00 0.0000e+00 1.0000e+00
       24  2    1    2    0    0 -1.69992377986e+00 -2.15897445309e+02 +9.29783327976e+02  9.57919797650e+02  8.06145465605e+01 0.0000e+00 0.0000e+00
        2  1    6    6  504    0 -1.23284551901e+01 -2.14653213471e+02 +9.12703647803e+02  9.37686483625e+02  0.00000000000e+00 0.0000e+00 -1.0000e+00
       -1  1    6    6    0  504 +1.06285314102e+01 -1.24423183713e+00 +1.70796801731e+01  2.02333140252e+01  0.00000000000e+00 0.0000e+00 1.0000e+00
       21  1    1    2  503  502 +8.85455817403e+01 +1.26904770343e+02 -2.26666735054e+02  2.74450267920e+02  0.00000000000e+00 0.0000e+00 -1.0000e+00
        1  1    1    2  501    0 +7.09834522509e+01 -2.64111261516e+01 +5.71054436231e+00  7.59526720725e+01  0.00000000000e+00 0.0000e+00 -1.0000e+00
        1  1    1    2  502    0 -4.83656369198e+01 +8.71894154276e+01 -1.26850402581e+03  1.27241647761e+03  0.00000000000e+00 0.0000e+00 -1.0000e+00
#  0.1300000e+05  0.1300000e+05  0.1552961e+03  0.1300000e+05  0.1300000e+05
<mgrwt>
<rscale>  2 0.15039133e+04</rscale>
<asrwt>  1 0.15529613e+03</asrwt>
<pdfrwt beam="1">  1        2 0.15607562e+00 0.22010765e+04</pdfrwt>
<pdfrwt beam="2">  2        2        2 0.43177897e+00 0.38282271e+00 0.15529613e+03 0.22010765e+04</pdfrwt>
<totfact> 0.73337127e-03</totfact>
</mgrwt>
<clustering>
<clus scale="   75.757">  3  6 -1 -1</clus>
<clus scale="   99.706">  4  7 -1 -1</clus>
<clus scale="  155.296">  2  5  1 -1</clus>
<clus scale="  479.718">  2  3  1 -1</clus>
<clus scale=" 2201.077">  1  3  2 -1</clus>
</clustering>
<rwgt>
  <wgt id="1">4.7502e-06</wgt>
  <wgt id="2">3.45129e-06</wgt>
  <wgt id="3">2.62382e-06</wgt>
  <wgt id="4">3.88834e-06</wgt>
  <wgt id="5">2.8251e-06</wgt>
  <wgt id="6">2.14776e-06</wgt>
  <wgt id="7">3.25484e-06</wgt>
  <wgt id="8">2.36482e-06</wgt>
  <wgt id="9">1.79784e-06</wgt>
  <wgt id="10">3.5195e-06</wgt>
  <wgt id="11">2.8251e-06</wgt>
  <wgt id="12">2.36293e-06</wgt>
  <wgt id="13">2.8251e-06</wgt>
  <wgt id="14">2.82835e-06</wgt>
  <wgt id="15">2.82237e-06</wgt>
  <wgt id="16">2.80198e-06</wgt>
  <wgt id="17">2.85111e-06</wgt>
  <wgt id="18">2.80881e-06</wgt>
  <wgt id="19">2.84923e-06</wgt>
  <wgt id="20">2.81716e-06</wgt>
  <wgt id="21">2.83041e-06</wgt>
  <wgt id="22">2.83501e-06</wgt>
  <wgt id="23">2.81107e-06</wgt>
  <wgt id="24">2.87837e-06</wgt>
  <wgt id="25">2.7923e-06</wgt>
  <wgt id="26">2.82541e-06</wgt>
  <wgt id="27">2.82472e-06</wgt>
  <wgt id="28">2.85741e-06</wgt>
  <wgt id="29">2.81316e-06</wgt>
  <wgt id="30">2.82822e-06</wgt>
  <wgt id="31">2.8212e-06</wgt>
  <wgt id="32">2.81795e-06</wgt>
  <wgt id="33">2.83171e-06</wgt>
  <wgt id="34">2.78176e-06</wgt>
  <wgt id="35">2.90526e-06</wgt>
  <wgt id="36">2.85096e-06</wgt>
  <wgt id="37">2.81105e-06</wgt>
  <wgt id="38">2.8133e-06</wgt>
  <wgt id="39">2.83167e-06</wgt>
  <wgt id="40">2.84054e-06</wgt>
  <wgt id="41">2.80967e-06</wgt>
  <wgt id="42">2.84825e-06</wgt>
  <wgt id="43">2.78864e-06</wgt>
  <wgt id="44">2.834e-06</wgt>
  <wgt id="45">2.82165e-06</wgt>
  <wgt id="46">2.82402e-06</wgt>
  <wgt id="47">2.82573e-06</wgt>
  <wgt id="48">2.83328e-06</wgt>
  <wgt id="49">2.82837e-06</wgt>
  <wgt id="50">2.81653e-06</wgt>
  <wgt id="51">2.83904e-06</wgt>
  <wgt id="52">2.84221e-06</wgt>
  <wgt id="53">2.82109e-06</wgt>
</rwgt>
</event>
<event>
 10      0 +2.8251000e-06 3.07049300e+02 7.54677100e-03 1.05484300e-01
        2 -1    0    0  502    0 +0.00000000000e+00 +0.00000000000e+00 +1.12924275540e+03  1.12924275540e+03  0.00000000000e+00 0.0000e+00 -1.0000e+00
        2 -1    0    0  501    0 +0.00000000000e+00 +0.00000000000e+00 -1.15803930520e+03  1.15803930520e+03  0.00000000000e+00 0.0000e+00 -1.0000e+00
       24  2    1    2    0    0 +2.71366473889e+01 -3.23060263757e+01 -8.14904899075e+02  8.19869795060e+02  7.96015662101e+01 0.0000e+00 0.0000e+00
       16  1    3    3    0    0 +2.53136680593e+01 +2.00101782684e+01 -1.84954511035e+02  1.87748129623e+02  0.00000000000e+00 0.0000e+00 -1.0000e+00
      -15  1    3    3    0    0 +1.82297932962e+00 -5.23162046441e+01 -6.29950388040e+02  6.32121665436e+02  1.77700000000e+00 0.0000e+00 1.0000e+00
       24  2    1    2    0    0 -3.05157975616e+02 +5.37327837457e+01 +6.36280931058e+01  3.26360963144e+02  8.03389189684e+01 0.0000e+00 0.0000e+00
        2  1    6    6  503    0 -7.76911095878e+00 -1.09545349853e+01 -5.07154743003e+00  1.43555395290e+01  0.00000000000e+00 0.0000e+00 -1.0000e+00
       -1  1    6    6    0  503 -2.97388864657e+02 +6.46873187310e+01 +6.86996405358e+01  3.12005423615e+02  0.00000000000e+00 0.0000e+00 1.0000e+00
        1  1    1    2  501    0 +2.82099875764e+02 +1.05718831687e+02 -9.33285264001e+01  3.15383932880e+02  0.00000000000e+00 0.0000e+00 -1.0000e+00
        1  1    1    2  502    0 -4.07854753699e+00 -1.27145589057e+02 +8.15808782569e+02  8.25667369516e+02  0.00000000000e+00 0.0000e+00 -1.0000e+00
#  0.1300000e+05  0.1300000e+05  0.1300000e+05  0.1300000e+05
<mgrwt>
<rscale>  2 0.22630099e+03</rscale>
<asrwt>0</asrwt>
<pdfrwt beam="1">  1        2 0.17372965e+00 0.30704935e+03</pdfrwt>
<pdfrwt beam="2">  1        2 0.17815989e+00 0.90598552e+02</pdfrwt>
<totfact> 0.88625577e-01</totfact>
</mgrwt>
<clustering>
<clus scale="   90.599">  2  3  1 -1</clus>
<clus scale="  127.656">  2  6  1 -1</clus>
<clus scale="  296.331">  2  5  1 -1</clus>
<clus scale="  307.049">  1  3  2 -1</clus>
</clustering>
<rwgt>
  <wgt id="1">5.0687e-06</wgt>
  <wgt id="2">3.35198e-06</wgt>
  <wgt id="3">2.38563e-06</wgt>
  <wgt id="4">4.27197e-06</wgt>
  <wgt id="5">2.8251e-06</wgt>
  <wgt id="6">2.01064e-06</wgt>
  <wgt id="7">3.67677e-06</wgt>
  <wgt id="8">2.43149e-06</wgt>
  <wgt id="9">1.7305e-06</wgt>
  <wgt id="10">2.8251e-06</wgt>
  <wgt id="11">2.8251e-06</wgt>
  <wgt id="12">2.8251e-06</wgt>
  <wgt id="13">2.8251e-06</wgt>
  <wgt id="14">2.8279e-06</wgt>
  <wgt id="15">2.82272e-06</wgt>
  <wgt id="16">2.81007e-06</wgt>
  <wgt id="17">2.84183e-06</wgt>
  <wgt id="18">2.81117e-06</wgt>
  <wgt id="19">2.84566e-06</wgt>
  <wgt id="20">2.81526e-06</wgt>
  <wgt id="21">2.83167e-06</wgt>
  <wgt id="22">2.83316e-06</wgt>
  <wgt id="23">2.81365e-06</wgt>
  <wgt id="24">2.8692e-06</wgt>
  <wgt id="25">2.79791e-06</wgt>
  <wgt id="26">2.82524e-06</wgt>
  <wgt id="27">2.82492e-06</wgt>
  <wgt id="28">2.87988e-06</wgt>
  <wgt id="29">2.80534e-06</wgt>
  <wgt id="30">2.83151e-06</wgt>
  <wgt id="31">2.81705e-06</wgt>
  <wgt id="32">2.82783e-06</wgt>
  <wgt id="33">2.82251e-06</wgt>
  <wgt id="34">2.78422e-06</wgt>
  <wgt id="35">2.90066e-06</wgt>
  <wgt id="36">2.85264e-06</wgt>
  <wgt id="37">2.80897e-06</wgt>
  <wgt id="38">2.81169e-06</wgt>
  <wgt id="39">2.83183e-06</wgt>
  <wgt id="40">2.82666e-06</wgt>
  <wgt id="41">2.82384e-06</wgt>
  <wgt id="42">2.85048e-06</wgt>
  <wgt id="43">2.78445e-06</wgt>
  <wgt id="44">2.83155e-06</wgt>
  <wgt id="45">2.82279e-06</wgt>
  <wgt id="46">2.8236e-06</wgt>
  <wgt id="47">2.82609e-06</wgt>
  <wgt id="48">2.82208e-06</wgt>
  <wgt id="49">2.83066e-06</wgt>
  <wgt id="50">2.81644e-06</wgt>
  <wgt id="51">2.83782e-06</wgt>
  <wgt id="52">2.84138e-06</wgt>
  <wgt id="53">2.82088e-06</wgt>
</rwgt>
</event>
<event>
 10      0 +2.8251000e-06 1.19181800e+02 7.54677100e-03 1.17135800e-01
        2 -1    0    0  501    0 +0.00000000000e+00 +0.00000000000e+00 +1.53651738220e+03  1.53651738220e+03  0.00000000000e+00 0.0000e+00 -1.0000e+00
        2 -1    0    0  502    0 +0.00000000000e+00 +0.00000000000e+00 -6.12345221990e+02  6.12345221990e+02  0.00000000000e+00 0.0000e+00 -1.0000e+00
       24  2    1    2    0    0 +7.05716296843e+01 +5.70630545755e+01 +1.33825052376e+03  1.34375074638e+03  8.07159025372e+01 0.0000e+00 0.0000e+00
        4  1    3    3  503    0 +5.28522994968e+01 +7.54020258071e+01 +1.16502923910e+03  1.16866246582e+03  0.00000000000e+00 0.0000e+00 -1.0000e+00
       -3  1    3    3    0  503 +1.77193301875e+01 -1.83389712316e+01 +1.73221284665e+02  1.75088280559e+02  0.00000000000e+00 0.0000e+00 1.0000e+00
       24  2    1    2    0    0 +5.43769779279e+00 -8.08919138046e+00 -2.64443081240e+02  2.78163561134e+02  8.57310909331e+01 0.0000e+00 0.0000e+00
        2  1    6    6  504    0 -1.34595783413e+00 -4.52707646103e+01 -1.05913419463e+02  1.15190738140e+02  0.00000000000e+00 0.0000e+00 -1.0000e+00
       -1  1    6    6    0  504 +6.78365562693e+00 +3.71815732299e+01 -1.58529661777e+02  1.62972822994e+02  0.00000000000e+00 0.0000e+00 1.0000e+00
        1  1    1    2  501    0 +2.92238863264e+01 -7.56393247302e+01 -3.17139392100e+02  3.27341926736e+02  0.00000000000e+00 0.0000e+00 -1.0000e+00
        1  1    1    2  502    0 -1.05233213803e+02 +2.66654615352e+01 +1.67504109785e+02  1.99606369942e+02  0.00000000000e+00 0.0000e+00 -1.0000e+00
#  0.1300000e+05  0.1300000e+05  0.1300000e+05  0.1300000e+05
<mgrwt>
<rscale>  2 0.10806018e+03</rscale>
<asrwt>0</asrwt>
<pdfrwt beam="1">  1        2 0.23638729e+00 0.11918184e+03</pdfrwt>
<pdfrwt beam="2">  1        2 0.94206957e-01 0.80543870e+02</pdfrwt>
<totfact> 0.15485074e+00</totfact>
</mgrwt>
<clustering>
<clus scale="   80.544">  2  4  1 -1</clus>
<clus scale="   90.413">  2  5  1 -1</clus>
<clus scale="   87.961">  2  6  1 -1</clus>
<clus scale="  119.182">  1  3  2 -1</clus>
</clustering>
<rwgt>
  <wgt id="1">5.26374e-06</wgt>
  <wgt id="2">3.29792e-06</wgt>
  <wgt id="3">2.26483e-06</wgt>
  <wgt id="4">4.50907e-06</wgt>
  <wgt id="5">2.8251e-06</wgt>
  <wgt id="6">1.94012e-06</wgt>
  <wgt id="7">3.92754e-06</wgt>
  <wgt id="8">2.46075e-06</wgt>
  <wgt id="9">1.68991e-06</wgt>
  <wgt id="10">2.8251e-06</wgt>
  <wgt id="11">2.8251e-06</wgt>
  <wgt id="12">2.8251e-06</wgt>
  <wgt id="13">2.8251e-06</wgt>
  <wgt id="14">2.828e-06</wgt>
  <wgt id="15">2.82269e-06</wgt>
  <wgt id="16">2.81382e-06</wgt>
  <wgt id="17">2.8376e-06</wgt>
  <wgt id="18">2.81154e-06</wgt>
  <wgt id="19">2.8452e-06</wgt>
  <wgt id="20">2.81462e-06</wgt>
  <wgt id="21">2.83216e-06</wgt>
  <wgt id="22">2.83273e-06</wgt>
  <wgt id="23">2.81425e-06</wgt>
  <wgt id="24">2.86736e-06</wgt>
  <wgt id="25">2.79908e-06</wgt>
  <wgt id="26">2.82463e-06</wgt>
  <wgt id="27">2.82566e-06</wgt>
  <wgt id="28">2.87375e-06</wgt>
  <wgt id="29">2.80748e-06</wgt>
  <wgt id="30">2.83074e-06</wgt>
  <wgt id="31">2.81785e-06</wgt>
  <wgt id="32">2.82787e-06</wgt>
  <wgt id="33">2.82239e-06</wgt>
  <wgt id="34">2.78572e-06</wgt>
  <wgt id="35">2.89778e-06</wgt>
  <wgt id="36">2.84486e-06</wgt>
  <wgt id="37">2.8149e-06</wgt>
  <wgt id="38">2.81477e-06</wgt>
  <wgt id="39">2.8304e-06</wgt>
  <wgt id="40">2.82778e-06</wgt>
  <wgt id="41">2.82274e-06</wgt>
  <wgt id="42">2.84865e-06</wgt>
  <wgt id="43">2.78565e-06</wgt>
  <wgt id="44">2.83363e-06</wgt>
  <wgt id="45">2.82194e-06</wgt>
  <wgt id="46">2.82441e-06</wgt>
  <wgt id="47">2.82572e-06</wgt>
  <wgt id="48">2.81424e-06</wgt>
  <wgt id="49">2.83369e-06</wgt>
  <wgt id="50">2.81564e-06</wgt>
  <wgt id="51">2.83849e-06</wgt>
  <wgt id="52">2.83637e-06</wgt>
  <wgt id="53">2.82223e-06</wgt>
</rwgt>
</event>
<event>
 11      0 +2.8251000e-06 2.49799800e+02 7.54677100e-03 1.06802800e-01
        2 -1    0    0  501    0 +0.00000000000e+00 +0.00000000000e+00 +1.18904053130e+03  1.18904053130e+03  0.00000000000e+00 0.0000e+00 -1.0000e+00
        2 -1    0    0  503    0 +0.00000000000e+00 +0.00000000000e+00 -2.77920906980e+02  2.77920906980e+02  0.00000000000e+00 0.0000e+00 -1.0000e+00
       24  2    1    2    0    0 -7.39039427732e+01 -5.66548109412e+00 +3.92030919666e+02  4.08213050105e+02  8.63467536621e+01 0.0000e+00 0.0000e+00
        2  1    3    3  504    0 -1.91380480794e+01 +3.79014180724e+01 +1.79656897479e+02  1.84606021537e+02  0.00000000000e+00 0.0000e+00 -1.0000e+00
       -1  1    3    3    0  504 -5.47658946938e+01 -4.35668991665e+01 +2.12374022187e+02  2.23607028567e+02  0.00000000000e+00 0.0000e+00 1.0000e+00
       24  2    1    2    0    0 -4.66040548130e+01 -1.14032006713e+01 -1.34175402101e+02  1.63862146423e+02  8.09060788247e+01 0.0000e+00 0.0000e+00
       12  1    6    6    0    0 -6.90080621239e+01 -3.78613567848e+00 -1.10885729884e+02  1.30660217945e+02  0.00000000000e+00 0.0000e+00 -1.0000e+00
      -11  1    6    6    0    0 +2.24040073108e+01 -7.61706499283e+00 -2.32896722165e+01  3.32019284777e+01  0.00000000000e+00 0.0000e+00 1.0000e+00
       21  1    1    2  503  502 -4.15783515918e+01 -2.94776866078e+01 -6.98658270493e+01  8.64807904573e+01  0.00000000000e+00 0.0000e+00 -1.0000e+00
        1  1    1    2  501    0 +2.44277736488e+02 +9.86100205160e+01 +5.49253345994e+02  6.09159081665e+02  0.00000000000e+00 0.0000e+00 -1.0000e+00
        1  1    1    2  502    0 -8.21913873102e+01 -5.20636521428e+01 +1.73876587810e+02  1.99246369630e+02  0.00000000000e+00 0.0000e+00 -1.0000e+00
#  0.1300000e+05  0.1300000e+05  0.5169167e+02  0.1300000e+05  0.1300000e+05
<mgrwt>
<rscale>  2 0.20639930e+03</rscale>
<asrwt>  1 0.51691670e+02</asrwt>
<pdfrwt beam="1">  1        2 0.18292931e+00 0.24979984e+03</pdfrwt>
<pdfrwt beam="2">  2        2        2 0.42757063e-01 0.30087514e-01 0.51691670e+02 0.24979984e+03</pdfrwt>
<totfact> 0.63631694e-01</totfact>
</mgrwt>
<clustering>
<clus scale="   51.692">  2  5  1 -1</clus>
<clus scale="  100.608">  3  7 -1 -1</clus>
<clus scale="  116.428">  2  4  1 -1</clus>
<clus scale="  208.094">  2  6  1 -1</clus>
<clus scale="  249.800">  1  3  2 -1</clus>
</clustering>
<rwgt>
  <wgt id="1">4.54692e-06</wgt>
  <wgt id="2">2.9887e-06</wgt>
  <wgt id="3">2.11851e-06</wgt>
  <wgt id="4">4.29803e-06</wgt>
  <wgt id="5">2.8251e-06</wgt>
  <wgt id="6">2.00255e-06</wgt>
  <wgt id="7">4.05059e-06</wgt>
  <wgt id="8">2.66246e-06</wgt>
  <wgt id="9">1.88726e-06</wgt>
  <wgt id="10">3.69857e-06</wgt>
  <wgt id="11">2.8251e-06</wgt>
  <wgt id="12">2.29056e-06</wgt>
  <wgt id="13">2.8251e-06</wgt>
  <wgt id="14">2.82831e-06</wgt>
  <wgt id="15">2.82236e-06</wgt>
  <wgt id="16">2.82138e-06</wgt>
  <wgt id="17">2.82908e-06</wgt>
  <wgt id="18">2.81304e-06</wgt>
  <wgt id="19">2.84296e-06</wgt>
  <wgt id="20">2.81544e-06</wgt>
  <wgt id="21">2.83151e-06</wgt>
  <wgt id="22">2.8315e-06</wgt>
  <wgt id="23">2.81599e-06</wgt>
  <wgt id="24">2.86069e-06</wgt>
  <wgt id="25">2.80308e-06</wgt>
  <wgt id="26">2.82433e-06</wgt>
  <wgt id="27">2.82615e-06</wgt>
  <wgt id="28">2.86408e-06</wgt>
  <wgt id="29">2.81091e-06</wgt>
  <wgt id="30">2.83073e-06</wgt>
  <wgt id="31">2.81778e-06</wgt>
  <wgt id="32">2.82938e-06</wgt>
  <wgt id="33">2.82102e-06</wgt>
  <wgt id="34">2.79189e-06</wgt>
  <wgt id="35">2.88594e-06</wgt>
  <wgt id="36">2.83578e-06</wgt>
  <wgt id="37">2.81964e-06</wgt>
  <wgt id="38">2.81633e-06</wgt>
  <wgt id="39">2.82938e-06</wgt>
  <wgt id="40">2.82633e-06</wgt>
  <wgt id="41">2.8242e-06</wgt>
  <wgt id="42">2.84554e-06</wgt>
  <wgt id="43">2.78799e-06</wgt>
  <wgt id="44">2.83375e-06</wgt>
  <wgt id="45">2.82179e-06</wgt>
  <wgt id="46">2.82386e-06</wgt>
  <wgt id="47">2.82621e-06</wgt>
  <wgt id="48">2.80266e-06</wgt>
  <wgt id="49">2.83766e-06</wgt>
  <wgt id="50">2.81578e-06</wgt>
  <wgt id="51">2.83569e-06</wgt>
  <wgt id="52">2.83006e-06</wgt>
  <wgt id="53">2.82364e-06</wgt>
</rwgt>
</event>
<event>
 10      0 +2.8251000e-06 2.41167100e+02 7.54677100e-03 1.07068400e-01
        2 -1    0    0  502    0 +0.00000000000e+00 +0.00000000000e+00 +1.14253851320e+02  1.14253851320e+02  0.00000000000e+00 0.0000e+00 -1.0000e+00
        2 -1    0    0  501    0 +0.00000000000e+00 +0.00000000000e+00 -9.14132291520e+02  9.14132291520e+02  0.00000000000e+00 0.0000e+00 -1.0000e+00
       24  2    1    2    0    0 +4.97791980024e+01 +6.83543184299e+01 -9.21614219593e+01  1.40833134967e+02  6.47299220248e+01 0.0000e+00 0.0000e+00
        2  1    3    3  503    0 +7.30573777845e+00 -3.53804929351e+00 -4.33669682416e+01  4.41201261530e+01  0.00000000000e+00 0.0000e+00 -1.0000e+00
       -1  1    3    3    0  503 +4.24734602240e+01 +7.18923677234e+01 -4.87944537177e+01  9.67130088141e+01  0.00000000000e+00 0.0000e+00 1.0000e+00
       24  2    1    2    0    0 +8.77871014239e+01 -1.55406059338e+01 +7.53306688889e+00  1.20694589067e+02  8.10083398425e+01 0.0000e+00 0.0000e+00
        4  1    6    6  504    0 +6.59325703723e+01 -2.69024799439e+01 +3.86388732062e+01  8.10173424995e+01  0.00000000000e+00 0.0000e+00 -1.0000e+00
       -3  1    6    6    0  504 +2.18545310516e+01 +1.13618740101e+01 -3.11058063173e+01  3.96772465672e+01  0.00000000000e+00 0.0000e+00 1.0000e+00
        1  1    1    2  501    0 -1.96886465153e+02 -5.05768916246e+01 -4.31763344751e+02  4.77223100863e+02  0.00000000000e+00 0.0000e+00 -1.0000e+00
        1  1    1    2  502    0 +5.93201657267e+01 -2.23682087147e+00 -2.83486740379e+02  2.89635317943e+02  0.00000000000e+00 0.0000e+00 -1.0000e+00
#  0.1300000e+05  0.1300000e+05  0.1300000e+05  0.1300000e+05
<mgrwt>
<rscale>  2 0.20266265e+03</rscale>
<asrwt>0</asrwt>
<pdfrwt beam="1">  1        2 0.17577516e-01 0.12026544e+03</pdfrwt>
<pdfrwt beam="2">  1        2 0.14063574e+00 0.24116707e+03</pdfrwt>
<totfact> 0.16941200e+01</totfact>
</mgrwt>
<clustering>
<clus scale="   59.095">  3  6 -1 -1</clus>
<clus scale="  120.265">  1  4  2 -1</clus>
<clus scale="  162.520">  1  5  2 -1</clus>
<clus scale="  241.167">  1  3  2 -1</clus>
</clustering>
<rwgt>
  <wgt id="1">4.25933e-06</wgt>
  <wgt id="2">2.79626e-06</wgt>
  <wgt id="3">1.9805e-06</wgt>
  <wgt id="4">4.30326e-06</wgt>
  <wgt id="5">2.8251e-06</wgt>
  <wgt id="6">2.00092e-06</wgt>
  <wgt id="7">4.25618e-06</wgt>
  <wgt id="8">2.79419e-06</wgt>
  <wgt id="9">1.97903e-06</wgt>
  <wgt id="10">2.8251e-06</wgt>
  <wgt id="11">2.8251e-06</wgt>
  <wgt id="12">2.8251e-06</wgt>
  <wgt id="13">2.8251e-06</wgt>
  <wgt id="14">2.82868e-06</wgt>
  <wgt id="15">2.82216e-06</wgt>
  <wgt id="16">2.8282e-06</wgt>
  <wgt id="17">2.82145e-06</wgt>
  <wgt id="18">2.81496e-06</wgt>
  <wgt id="19">2.84004e-06</wgt>
  <wgt id="20">2.81809e-06</wgt>
  <wgt id="21">2.82979e-06</wgt>
  <wgt id="22">2.82985e-06</wgt>
  <wgt id="23">2.81827e-06</wgt>
  <wgt id="24">2.85186e-06</wgt>
  <wgt id="25">2.80849e-06</wgt>
  <wgt id="26">2.82516e-06</wgt>
  <wgt id="27">2.82498e-06</wgt>
  <wgt id="28">2.8511e-06</wgt>
  <wgt id="29">2.81557e-06</wgt>
  <wgt id="30">2.83544e-06</wgt>
  <wgt id="31">2.81092e-06</wgt>
  <wgt id="32">2.82935e-06</wgt>
  <wgt id="33">2.821e-06</wgt>
  <wgt id="34">2.7949e-06</wgt>
  <wgt id="35">2.87955e-06</wgt>
  <wgt id="36">2.83669e-06</wgt>
  <wgt id="37">2.81813e-06</wgt>
  <wgt id="38">2.81793e-06</wgt>
  <wgt id="39">2.82848e-06</wgt>
  <wgt id="40">2.82611e-06</wgt>
  <wgt id="41">2.825e-06</wgt>
  <wgt id="42">2.84073e-06</wgt>
  <wgt id="43">2.7938e-06</wgt>
  <wgt id="44">2.83258e-06</wgt>
  <wgt id="45">2.82216e-06</wgt>
  <wgt id="46">2.82129e-06</wgt>
  <wgt id="47">2.8279e-06</wgt>
  <wgt id="48">2.8024e-06</wgt>
  <wgt id="49">2.83657e-06</wgt>
  <wgt id="50">2.81184e-06</wgt>
  <wgt id="51">2.83185e-06</wgt>
  <wgt id="52">2.82822e-06</wgt>
  <wgt id="53">2.8241e-06</wgt>
</rwgt>
</event>
<event>
 10      0 +2.8251000e-06 3.02227000e+02 7.54677100e-03 1.03838900e-01
        2 -1    0    0  502    0 +0.00000000000e+00 +0.00000000000e+00 +5.12621005860e+02  5.12621005860e+02  0.00000000000e+00 0.0000e+00 -1.0000e+00
        2 -1    0    0  501    0 +0.00000000000e+00 +0.00000000000e+00 -1.62020382750e+03  1.62020382750e+03  0.00000000000e+00 0.0000e+00 -1.0000e+00
       24  2    1    2    0    0 +1.62738191823e+02 -4.67737790723e+01 +2.70933645260e+02  3.32404242120e+02  9.17389478870e+01 0.0000e+00 0.0000e+00
       16  1    3    3    0    0 +2.16244814248e+01 -4.60171988731e+01 +6.03953062397e+01  7.89480449714e+01  0.00000000000e+00 0.0000e+00 -1.0000e+00
      -15  1    3    3    0    0 +1.41113710398e+02 -7.56580199171e-01 +2.10538339020e+02  2.53456197149e+02  1.77700000000e+00 0.0000e+00 1.0000e+00
       24  2    1    2    0    0 -1.26805605840e+01 +4.92537474479e+01 -2.65530007135e+02  2.82069767621e+02  8.04390506034e+01 0.0000e+00 0.0000e+00
       14  1    6    6    0    0 -4.62668707309e+01 +2.77067371236e+01 -1.74964301347e+02  1.83086846483e+02  0.00000000000e+00 0.0000e+00 -1.0000e+00
      -13  1    6    6    0    0 +3.35863101469e+01 +2.15470103243e+01 -9.05657057882e+01  9.89829211376e+01  0.00000000000e+00 0.0000e+00 1.0000e+00
        1  1    1    2  501    0 -3.08366684375e+02 -4.24615698016e+02 -3.45684064608e+02  6.28399534976e+02  0.00000000000e+00 0.0000e+00 -1.0000e+00
        1  1    1    2  502    0 +1.58309053136e+02 +4.22135729641e+02 -7.67302395156e+02  8.89951288643e+02  0.00000000000e+00 0.0000e+00 -1.0000e+00
#  0.1300000e+05  0.1300000e+05  0.1300000e+05  0.1300000e+05
<mgrwt>
<rscale>  2 0.25467480e+03</rscale>
<asrwt>0</asrwt>
<pdfrwt beam="1">  1        2 0.78864770e-01 0.18905331e+03</pdfrwt>
<pdfrwt beam="2">  1        2 0.24926213e+00 0.95322383e+02</pdfrwt>
<totfact> 0.13435548e+00</totfact>
</mgrwt>
<clustering>
<clus scale="   95.322">  2  4  1 -1</clus>
<clus scale="  189.053">  1  3  2 -1</clus>
<clus scale="  483.150">  2  6  1 -1</clus>
<clus scale="  483.150">  1  3  2 -1</clus>
</clustering>
<rwgt>
  <wgt id="1">4.95522e-06</wgt>
  <wgt id="2">3.30148e-06</wgt>
  <wgt id="3">2.36158e-06</wgt>
  <wgt id="4">4.24022e-06</wgt>
  <wgt id="5">2.8251e-06</wgt>
  <wgt id="6">2.02082e-06</wgt>
  <wgt id="7">3.69683e-06</wgt>
  <wgt id="8">2.46306e-06</wgt>
  <wgt id="9">1.76185e-06</wgt>
  <wgt id="10">2.8251e-06</wgt>
  <wgt id="11">2.8251e-06</wgt>
  <wgt id="12">2.8251e-06</wgt>
  <wgt id="13">2.8251e-06</wgt>
  <wgt id="14">2.82806e-06</wgt>
  <wgt id="15">2.82262e-06</wgt>
  <wgt id="16">2.81442e-06</wgt>
  <wgt id="17">2.83693e-06</wgt>
  <wgt id="18">2.81166e-06</wgt>
  <wgt id="19">2.84503e-06</wgt>
  <wgt id="20">2.81525e-06</wgt>
  <wgt id="21">2.83168e-06</wgt>
  <wgt id="22">2.83269e-06</wgt>
  <wgt id="23">2.81433e-06</wgt>
  <wgt id="24">2.86697e-06</wgt>
  <wgt id="25">2.79931e-06</wgt>
  <wgt id="26">2.82468e-06</wgt>
  <wgt id="27">2.82569e-06</wgt>
  <wgt id="28">2.87153e-06</wgt>
  <wgt id="29">2.80829e-06</wgt>
  <wgt id="30">2.83039e-06</wgt>
  <wgt id="31">2.81827e-06</wgt>
  <wgt id="32">2.82772e-06</wgt>
  <wgt id="33">2.82257e-06</wgt>
  <wgt id="34">2.78635e-06</wgt>
  <wgt id="35">2.89666e-06</wgt>
  <wgt id="36">2.84098e-06</wgt>
  <wgt id="37">2.81741e-06</wgt>
  <wgt id="38">2.81578e-06</wgt>
  <wgt id="39">2.82997e-06</wgt>
  <wgt id="40">2.82829e-06</wgt>
  <wgt id="41">2.82221e-06</wgt>
  <wgt id="42">2.84794e-06</wgt>
  <wgt id="43">2.78643e-06</wgt>
  <wgt id="44">2.83365e-06</wgt>
  <wgt id="45">2.8219e-06</wgt>
  <wgt id="46">2.82424e-06</wgt>
  <wgt id="47">2.82583e-06</wgt>
  <wgt id="48">2.81319e-06</wgt>
  <wgt id="49">2.83416e-06</wgt>
  <wgt id="50">2.81586e-06</wgt>
  <wgt id="51">2.8382e-06</wgt>
  <wgt id="52">2.83536e-06</wgt>
  <wgt id="53">2.82252e-06</wgt>
</rwgt>
</event>
<event>
 11      0 +2.8251000e-06 4.72649700e+02 7.54677100e-03 9.99257200e-02
        2 -1    0    0  503    0 +0.00000000000e+00 +0.00000000000e+00 +9.25531718870e+02  9.25531718870e+02  0.00000000000e+00 0.0000e+00 -1.0000e+00
       -1 -1    0    0    0  501 +0.00000000000e+00 +0.00000000000e+00 -1.47507453850e+02  1.47507453850e+02  0.00000000000e+00 0.0000e+00 1.0000e+00
       24  2    1    2    0    0 +3.35996021405e+01 +3.78295598689e+01 +3.12298075690e+02  3.26823495868e+02  8.19969542585e+01 0.0000e+00 0.0000e+00
       14  1    3    3    0    0 +4.60155991721e+01 +4.41156590908e+01 +1.38464384634e+02  1.52433633284e+02  0.00000000000e+00 0.0000e+00 -1.0000e+00
      -13  1    3    3    0    0 -1.24159970316e+01 -6.28609922190e+00 +1.73833691056e+02  1.74389862584e+02  0.00000000000e+00 0.0000e+00 1.0000e+00
       24  2    1    2    0    0 +8.00806183824e+01 -6.36936580458e+01 -3.20656390815e+01  1.31210882720e+02  7.56194619050e+01 0.0000e+00 0.0000e+00
        4  1    6    6  504    0 +1.91277365493e+01 -4.83842039314e+01 +1.33008986879e+01  5.37011675989e+01  0.00000000000e+00 0.0000e+00 -1.0000e+00
       -3  1    6    6    0  504 +6.09528818330e+01 -1.53094541144e+01 -4.53665377694e+01  7.75097151215e+01  0.00000000000e+00 0.0000e+00 1.0000e+00
       21  1    1    2  503  502 -9.72274749830e+00 +6.03872119210e+01 +1.73554630890e+02  1.84017273880e+02  0.00000000000e+00 0.0000e+00 1.0000e+00
        1  1    1    2  502    0 -6.41689514344e+01 +3.92708391042e+01 +3.37786102373e+02  3.46062572504e+02  0.00000000000e+00 0.0000e+00 -1.0000e+00
       -2  1    1    2    0  501 -3.97885215902e+01 -7.37939528483e+01 -1.35489048518e+01  8.49249477479e+01  0.00000000000e+00 0.0000e+00 1.0000e+00
#  0.1300000e+05  0.1300000e+05  0.5790120e+02  0.1279384e+03  0.1300000e+05
<mgrwt>
<rscale>  2 0.34272044e+03</rscale>
<asrwt>  1 0.57901195e+02</asrwt>
<pdfrwt beam="1">  1        2 0.14238950e+00 0.47264971e+03</pdfrwt>
<pdfrwt beam="2">  1       -1 0.22693454e-01 0.13065975e+03</pdfrwt>
<totfact> 0.75245585e-01</totfact>
</mgrwt>
<clustering>
<clus scale="   57.901">  5  6 -1 -1</clus>
<clus scale="   80.423">  3  7 -1 -1</clus>
<clus scale="  130.660">  2  4  1 -1</clus>
<clus scale="  127.938">  3  5 -1 -1</clus>
<clus scale="  472.650">  1  3  2 -1</clus>
</clustering>
<rwgt>
  <wgt id="1">4.17614e-06</wgt>
  <wgt id="2">2.83201e-06</wgt>
  <wgt id="3">2.0503e-06</wgt>
  <wgt id="4">4.16595e-06</wgt>
  <wgt id="5">2.8251e-06</wgt>
  <wgt id="6">2.0453e-06</wgt>
  <wgt id="7">4.06944e-06</wgt>
  <wgt id="8">2.75965e-06</wgt>
  <wgt id="9">1.99791e-06</wgt>
  <wgt id="10">3.6758e-06</wgt>
  <wgt id="11">2.8251e-06</wgt>
  <wgt id="12">2.29913e-06</wgt>
  <wgt id="13">2.8251e-06</wgt>
  <wgt id="14">2.83021e-06</wgt>
  <wgt id="15">2.82083e-06</wgt>
  <wgt id="16">2.83371e-06</wgt>
  <wgt id="17">2.81528e-06</wgt>
  <wgt id="18">2.81252e-06</wgt>
  <wgt id="19">2.84379e-06</wgt>
  <wgt id="20">2.82938e-06</wgt>
  <wgt id="21">2.82223e-06</wgt>
  <wgt id="22">2.83235e-06</wgt>
  <wgt id="23">2.81479e-06</wgt>
  <wgt id="24">2.86417e-06</wgt>
  <wgt id="25">2.8011e-06</wgt>
  <wgt id="26">2.8262e-06</wgt>
  <wgt id="27">2.82357e-06</wgt>
  <wgt id="28">2.84898e-06</wgt>
  <wgt id="29">2.81639e-06</wgt>
  <wgt id="30">2.83616e-06</wgt>
  <wgt id="31">2.80994e-06</wgt>
  <wgt id="32">2.8339e-06</wgt>
  <wgt id="33">2.81665e-06</wgt>
  <wgt id="34">2.79835e-06</wgt>
  <wgt id="35">2.87405e-06</wgt>
  <wgt id="36">2.85634e-06</wgt>
  <wgt id="37">2.80699e-06</wgt>
  <wgt id="38">2.82077e-06</wgt>
  <wgt id="39">2.82726e-06</wgt>
  <wgt id="40">2.82241e-06</wgt>
  <wgt id="41">2.82903e-06</wgt>
  <wgt id="42">2.84478e-06</wgt>
  <wgt id="43">2.78349e-06</wgt>
  <wgt id="44">2.83103e-06</wgt>
  <wgt id="45">2.82298e-06</wgt>
  <wgt id="46">2.81531e-06</wgt>
  <wgt id="47">2.83202e-06</wgt>
  <wgt id="48">2.82559e-06</wgt>
  <wgt id="49">2.82546e-06</wgt>
  <wgt id="50">2.82385e-06</wgt>
  <wgt id="51">2.81699e-06</wgt>
  <wgt id="52">2.83902e-06</wgt>
  <wgt id="53">2.82128e-06</wgt>
</rwgt>
</event>
<event>
 12      0 +2.8251000e-06 6.91964500e+02 7.54677100e-03 9.67325900e-02
        2 -1    0    0  503    0 +0.00000000000e+00 +0.00000000000e+00 +1.63565346020e+03  1.63565346020e+03  0.00000000000e+00 0.0000e+00 -1.0000e+00
       -3 -1    0    0    0  501 +0.00000000000e+00 +0.00000000000e+00 -6.22100316400e+02  6.22100316400e+02  0.00000000000e+00 0.0000e+00 1.0000e+00
       24  2    1    2    0    0 -5.58174853878e+01 +7.28205550111e+01 +2.91320309852e+02  3.15537864187e+02  7.92350673379e+01 0.0000e+00 0.0000e+00
        4  1    3    3  505    0 -5.44093967065e+01 +8.20577317594e+01 +2.89803383442e+02  3.06071649856e+02  0.00000000000e+00 0.0000e+00 -1.0000e+00
       -3  1    3    3    0  505 -1.40808868129e+00 -9.23717674835e+00 +1.51692641035e+00  9.46621433040e+00  0.00000000000e+00 0.0000e+00 1.0000e+00
       24  2    1    2    0    0 +3.58390555634e+02 -2.58145540319e+02 -9.79810741908e+01  4.59655559490e+02  8.12405817055e+01 0.0000e+00 0.0000e+00
        2  1    6    6  506    0 +2.00194961423e+02 -1.59326352597e+02 -1.73337981238e+01  2.56443697073e+02  0.00000000000e+00 0.0000e+00 -1.0000e+00
       -1  1    6    6    0  506 +1.58195594211e+02 -9.88191877219e+01 -8.06472760671e+01  2.03211862417e+02  0.00000000000e+00 0.0000e+00 1.0000e+00
       21  1    1    2  503  504 -8.29065615304e+00 -4.33214036196e+01 +3.43730519433e+01  5.59194571765e+01  0.00000000000e+00 0.0000e+00 1.0000e+00
       21  1    1    2  504  501 +3.71962706196e+01 +3.13275415336e+01 -5.14392902200e+01  7.07882616320e+01  0.00000000000e+00 0.0000e+00 1.0000e+00
        1  1    1    2  502    0 -4.91587843386e+02 +3.91085014790e+02 +8.99286658020e+02  1.09696061454e+03  0.00000000000e+00 0.0000e+00 -1.0000e+00
       -4  1    1    2    0  502 +1.60109158673e+02 -1.93766167396e+02 -6.20065116048e+01  2.58892019575e+02  0.00000000000e+00 0.0000e+00 1.0000e+00
#  0.1300000e+05  0.1300000e+05  0.4411109e+02  0.4836136e+02  0.1300000e+05  0.1300000e+05
<mgrwt>
<rscale>  2 0.44467848e+03</rscale>
<asrwt>  2 0.44111088e+02 0.48361358e+02</asrwt>
<pdfrwt beam="1">  2        2        2 0.25163899e+00 0.24033476e+00 0.44111088e+02 0.69196448e+03</pdfrwt>
<pdfrwt beam="2">  2       -3       -3 0.95707741e-01 0.85658844e-01 0.48361358e+02 0.69196448e+03</pdfrwt>
<totfact> 0.15815986e-03</totfact>
</mgrwt>
<clustering>
<clus scale="   44.111">  1  5  2 -1</clus>
<clus scale="   48.361">  2  6  1 -1</clus>
<clus scale="  118.014">  1  3  2 -1</clus>
<clus scale="  246.465">  4  8 -1 -1</clus>
<clus scale="  679.243">  1  7  2 -1</clus>
<clus scale="  691.964">  1  3  2 -1</clus>
</clustering>
<rwgt>
  <wgt id="1">4.6996e-06</wgt>
  <wgt id="2">3.23222e-06</wgt>
  <wgt id="3">2.36325e-06</wgt>
  <wgt id="4">4.10765e-06</wgt>
  <wgt id="5">2.8251e-06</wgt>
  <wgt id="6">2.06558e-06</wgt>
  <wgt id="7">3.62225e-06</wgt>
  <wgt id="8">2.49126e-06</wgt>
  <wgt id="9">1.82149e-06</wgt>
  <wgt id="10">4.90582e-06</wgt>
  <wgt id="11">2.8251e-06</wgt>
  <wgt id="12">1.84307e-06</wgt>
  <wgt id="13">2.8251e-06</wgt>
  <wgt id="14">2.83389e-06</wgt>
  <wgt id="15">2.81784e-06</wgt>
  <wgt id="16">2.77814e-06</wgt>
  <wgt id="17">2.87804e-06</wgt>
  <wgt id="18">2.85822e-06</wgt>
  <wgt id="19">2.77552e-06</wgt>
  <wgt id="20">2.79065e-06</wgt>
  <wgt id="21">2.84827e-06</wgt>
  <wgt id="22">2.88172e-06</wgt>
  <wgt id="23">2.74482e-06</wgt>
  <wgt id="24">2.78943e-06</wgt>
  <wgt id="25">2.84644e-06</wgt>
  <wgt id="26">2.82044e-06</wgt>
  <wgt id="27">2.83149e-06</wgt>
  <wgt id="28">2.85092e-06</wgt>
  <wgt id="29">2.81573e-06</wgt>
  <wgt id="30">2.81361e-06</wgt>
  <wgt id="31">2.83919e-06</wgt>
  <wgt id="32">2.81932e-06</wgt>
  <wgt id="33">2.83071e-06</wgt>
  <wgt id="34">2.80561e-06</wgt>
  <wgt id="35">2.86616e-06</wgt>
  <wgt id="36">2.81662e-06</wgt>
  <wgt id="37">2.83149e-06</wgt>
  <wgt id="38">2.77661e-06</wgt>
  <wgt id="39">2.84876e-06</wgt>
  <wgt id="40">2.83259e-06</wgt>
  <wgt id="41">2.81964e-06</wgt>
  <wgt id="42">2.82633e-06</wgt>
  <wgt id="43">2.81929e-06</wgt>
  <wgt id="44">2.82606e-06</wgt>
  <wgt id="45">2.8243e-06</wgt>
  <wgt id="46">2.802e-06</wgt>
  <wgt id="47">2.83374e-06</wgt>
  <wgt id="48">2.81729e-06</wgt>
  <wgt id="49">2.83424e-06</wgt>
  <wgt id="50">2.83264e-06</wgt>
  <wgt id="51">2.83412e-06</wgt>
  <wgt id="52">2.89292e-06</wgt>
  <wgt id="53">2.86889e-06</wgt>
</rwgt>
</event>
<event>
 10      0 +2.8251000e-06 1.39487100e+02 7.54677100e-03 1.14508400e-01
       -3 -1    0    0    0  501 +0.00000000000e+00 +0.00000000000e+00 +6.25328744370e+01  6.25328744370e+01  0.00000000000e+00 0.0000e+00 1.0000e+00
        2 -1    0    0  501    0 +0.00000000000e+00 +0.00000000000e+00 -4.01569025400e+03  4.01569025400e+03  0.00000000000e+00 0.0000e+00 -1.0000e+00
       24  2    1    2    0    0 -1.35863504460e+01 +4.37118219442e+01 -1.36853275252e+03  1.37139953910e+03  7.58912962340e+01 0.0000e+00 0.0000e+00
        4  1    3    3  503    0 -9.64860211802e+00 +4.92826982653e+01 -1.35749594767e+03  1.35842450207e+03  0.00000000000e+00 0.0000e+00 -1.0000e+00
       -3  1    3    3    0  503 -3.93774832800e+00 -5.57087632111e+00 -1.10368048426e+01  1.29750370332e+01  0.00000000000e+00 0.0000e+00 1.0000e+00
       24  2    1    2    0    0 -1.12121532012e+02 +2.57363961295e+01 -9.11894040669e+01  1.67509152586e+02  8.06858646823e+01 0.0000e+00 0.0000e+00
        4  1    6    6  504    0 -5.51063435502e+01 -7.17199786378e+00 -8.47765886642e+01  1.01366743256e+02  0.00000000000e+00 0.0000e+00 -1.0000e+00
       -3  1    6    6    0  504 -5.70151884618e+01 +3.29083939933e+01 -6.41281540266e+00  6.61424093297e+01  0.00000000000e+00 0.0000e+00 1.0000e+00
        1  1    1    2  502    0 +8.68300329617e+01 +8.51197341939e+01 -2.21617603328e+03  2.21950918770e+03  0.00000000000e+00 0.0000e+00 -1.0000e+00
       -4  1    1    2    0  502 +3.88778494964e+01 -1.54567952268e+02 -2.77259189696e+02  3.19805249051e+02  0.00000000000e+00 0.0000e+00 1.0000e+00
#  0.1300000e+05  0.1300000e+05  0.1300000e+05  0.1300000e+05
<mgrwt>
<rscale>  2 0.12592548e+03</rscale>
<asrwt>0</asrwt>
<pdfrwt beam="1">  1        2 0.61779850e+00 0.93826366e+02</pdfrwt>
<pdfrwt beam="2">  1       -3 0.96204422e-02 0.13948713e+03</pdfrwt>
<totfact> 0.39813362e-01</totfact>
</mgrwt>
<clustering>
<clus scale="   93.826">  2  3  1 -1</clus>
<clus scale="  141.256">  1  4  2 -1</clus>
<clus scale="  137.740">  2  5  1 -1</clus>
<clus scale="  137.740">  2  3  1 -1</clus>
</clustering>
<rwgt>
  <wgt id="1">5.39852e-06</wgt>
  <wgt id="2">3.42397e-06</wgt>
  <wgt id="3">2.37049e-06</wgt>
  <wgt id="4">4.45429e-06</wgt>
  <wgt id="5">2.8251e-06</wgt>
  <wgt id="6">1.95588e-06</wgt>
  <wgt id="7">3.71694e-06</wgt>
  <wgt id="8">2.35744e-06</wgt>
  <wgt id="9">1.63211e-06</wgt>
  <wgt id="10">2.8251e-06</wgt>
  <wgt id="11">2.8251e-06</wgt>
  <wgt id="12">2.8251e-06</wgt>
  <wgt id="13">2.8251e-06</wgt>
  <wgt id="14">2.83066e-06</wgt>
  <wgt id="15">2.8205e-06</wgt>
  <wgt id="16">2.79707e-06</wgt>
  <wgt id="17">2.85667e-06</wgt>
  <wgt id="18">2.82946e-06</wgt>
  <wgt id="19">2.81846e-06</wgt>
  <wgt id="20">2.81281e-06</wgt>
  <wgt id="21">2.83338e-06</wgt>
  <wgt id="22">2.83403e-06</wgt>
  <wgt id="23">2.81228e-06</wgt>
  <wgt id="24">2.86098e-06</wgt>
  <wgt id="25">2.80309e-06</wgt>
  <wgt id="26">2.82878e-06</wgt>
  <wgt id="27">2.81999e-06</wgt>
  <wgt id="28">2.79252e-06</wgt>
  <wgt id="29">2.83648e-06</wgt>
  <wgt id="30">2.83671e-06</wgt>
  <wgt id="31">2.80567e-06</wgt>
  <wgt id="32">2.80182e-06</wgt>
  <wgt id="33">2.84739e-06</wgt>
  <wgt id="34">2.78781e-06</wgt>
  <wgt id="35">2.8914e-06</wgt>
  <wgt id="36">2.86475e-06</wgt>
  <wgt id="37">2.80077e-06</wgt>
  <wgt id="38">2.82768e-06</wgt>
  <wgt id="39">2.82376e-06</wgt>
  <wgt id="40">2.85757e-06</wgt>
  <wgt id="41">2.79517e-06</wgt>
  <wgt id="42">2.83008e-06</wgt>
  <wgt id="43">2.81805e-06</wgt>
  <wgt id="44">2.8172e-06</wgt>
  <wgt id="45">2.8281e-06</wgt>
  <wgt id="46">2.85416e-06</wgt>
  <wgt id="47">2.80562e-06</wgt>
  <wgt id="48">2.81587e-06</wgt>
  <wgt id="49">2.83785e-06</wgt>
  <wgt id="50">2.80027e-06</wgt>
  <wgt id="51">2.83597e-06</wgt>
  <wgt id="52">2.78471e-06</wgt>
  <wgt id="53">2.83362e-06</wgt>
</rwgt>
</event>
<event>
 10      0 +2.8251000e-06 3.49596700e+02 7.54677100e-03 1.02349100e-01
        2 -1    0    0  502    0 +0.00000000000e+00 +0.00000000000e+00 +1.30812920460e+03  1.30812920460e+03  0.00000000000e+00 0.0000e+00 -1.0000e+00
        2 -1    0    0  501    0 +0.00000000000e+00 +0.00000000000e+00 -7.81746610320e+02  7.81746610320e+02  0.00000000000e+00 0.0000e+00 -1.0000e+00
       24  2    1    2    0    0 +1.93616226328e+01 -1.78078321919e+01 +9.83237788038e+02  9.86787556636e+02  7.93797378968e+01 0.0000e+00 0.0000e+00
       14  1    3    3    0    0 +4.08356072356e+00 +2.22923650307e+01 +6.95341252827e+02  6.95710487840e+02  0.00000000000e+00 0.0000e+00 -1.0000e+00
      -13  1    3    3    0    0 +1.52780619092e+01 -4.01001972226e+01 +2.87896535210e+02  2.91077068796e+02  0.00000000000e+00 0.0000e+00 1.0000e+00
       24  2    1    2    0    0 -5.68982430380e+00 +2.14065193128e+01 -7.41008003375e+02  7.45559500386e+02  7.92180180321e+01 0.0000e+00 0.0000e+00
       12  1    6    6    0    0 +7.69857154446e+00 +4.68840339195e+01 -3.13065968823e+02  3.16650724736e+02  0.00000000000e+00 0.0000e+00 -1.0000e+00
      -11  1    6    6    0    0 -1.33883958483e+01 -2.54775146067e+01 -4.27942034552e+02  4.28908775651e+02  0.00000000000e+00 0.0000e+00 1.0000e+00
        1  1    1    2  501    0 +5.20471838512e+01 +2.27761954599e+01 +2.80956143852e+02  2.86642668134e+02  0.00000000000e+00 0.0000e+00 -1.0000e+00
        1  1    1    2  502    0 -6.57189821802e+01 -2.63748825808e+01 +3.19666576504e+00  7.08860897636e+01  0.00000000000e+00 0.0000e+00 -1.0000e+00
#  0.1300000e+05  0.1300000e+05  0.1300000e+05  0.1300000e+05
<mgrwt>
<rscale>  2 0.28439116e+03</rscale>
<asrwt>0</asrwt>
<pdfrwt beam="1">  1        2 0.20125065e+00 0.15309553e+03</pdfrwt>
<pdfrwt beam="2">  1        2 0.12026871e+00 0.34959667e+03</pdfrwt>
<totfact> 0.10999814e+00</totfact>
</mgrwt>
<clustering>
<clus scale="   56.027">  3  5 -1 -1</clus>
<clus scale="   70.642">  4  6 -1 -1</clus>
<clus scale="  153.096">  1  3  2 -1</clus>
<clus scale="  349.597">  1  3  2 -1</clus>
</clustering>
<rwgt>
  <wgt id="1">4.89009e-06</wgt>
  <wgt id="2">3.28007e-06</wgt>
  <wgt id="3">2.35702e-06</wgt>
  <wgt id="4">4.2118e-06</wgt>
  <wgt id="5">2.8251e-06</wgt>
  <wgt id="6">2.03008e-06</wgt>
  <wgt id="7">3.68972e-06</wgt>
  <wgt id="8">2.47491e-06</wgt>
  <wgt id="9">1.77844e-06</wgt>
  <wgt id="10">2.8251e-06</wgt>
  <wgt id="11">2.8251e-06</wgt>
  <wgt id="12">2.8251e-06</wgt>
  <wgt id="13">2.8251e-06</wgt>
  <wgt id="14">2.82796e-06</wgt>
  <wgt id="15">2.82271e-06</wgt>
  <wgt id="16">2.81218e-06</wgt>
  <wgt id="17">2.83947e-06</wgt>
  <wgt id="18">2.81147e-06</wgt>
  <wgt id="19">2.84531e-06</wgt>
  <wgt id="20">2.81428e-06</wgt>
  <wgt id="21">2.83231e-06</wgt>
  <wgt id="22">2.8328e-06</wgt>
  <wgt id="23">2.81411e-06</wgt>
  <wgt id="24">2.86775e-06</wgt>
  <wgt id="25">2.79881e-06</wgt>
  <wgt id="26">2.82485e-06</wgt>
  <wgt id="27">2.82542e-06</wgt>
  <wgt id="28">2.87745e-06</wgt>
  <wgt id="29">2.8062e-06</wgt>
  <wgt id="30">2.83092e-06</wgt>
  <wgt id="31">2.81773e-06</wgt>
  <wgt id="32">2.82809e-06</wgt>
  <wgt id="33">2.82225e-06</wgt>
  <wgt id="34">2.78574e-06</wgt>
  <wgt id="35">2.89788e-06</wgt>
  <wgt id="36">2.85084e-06</wgt>
  <wgt id="37">2.81058e-06</wgt>
  <wgt id="38">2.81243e-06</wgt>
  <wgt id="39">2.83147e-06</wgt>
  <wgt id="40">2.82668e-06</wgt>
  <wgt id="41">2.8239e-06</wgt>
  <wgt id="42">2.84961e-06</wgt>
  <wgt id="43">2.78503e-06</wgt>
  <wgt id="44">2.8327e-06</wgt>
  <wgt id="45">2.82229e-06</wgt>
  <wgt id="46">2.82424e-06</wgt>
  <wgt id="47">2.82576e-06</wgt>
  <wgt id="48">2.81795e-06</wgt>
  <wgt id="49">2.83208e-06</wgt>
  <wgt id="50">2.81576e-06</wgt>
  <wgt id="51">2.83859e-06</wgt>
  <wgt id="52">2.83902e-06</wgt>
  <wgt id="53">2.82149e-06</wgt>
</rwgt>
</event>
<event>
 10      0 +2.8251000e-06 2.16722700e+03 7.54677100e-03 8.22317700e-02
        2 -1    0    0  502    0 +0.00000000000e+00 +0.00000000000e+00 +2.71748176680e+03  2.71748176680e+03  0.00000000000e+00 0.0000e+00 -1.0000e+00
        2 -1    0    0  501    0 +0.00000000000e+00 +0.00000000000e+00 -1.09167144380e+03  1.09167144380e+03  0.00000000000e+00 0.0000e+00 -1.0000e+00
       24  2    1    2    0    0 +2.93735210750e+01 -2.80601615495e+02 -4.31752761001e+02  5.21930534816e+02  8.00060384159e+01 0.0000e+00 0.0000e+00
        4  1    3    3  503    0 +2.23846763196e+01 -2.83700472471e+02 -4.11824047677e+02  5.00585734973e+02  0.00000000000e+00 0.0000e+00 -1.0000e+00
       -3  1    3    3    0  503 +6.98884475538e+00 +3.09885697593e+00 -1.99287133240e+01  2.13447998426e+01  0.00000000000e+00 0.0000e+00 1.0000e+00
       24  2    1    2    0    0 -8.60765353417e+01 +5.36855298530e+02 +1.81405479732e+03  1.89536858728e+03  7.74886601902e+01 0.0000e+00 0.0000e+00
        4  1    6    6  504    0 -1.78918325463e+01 +3.44413605993e+02 +1.16173352542e+03  1.21184389826e+03  0.00000000000e+00 0.0000e+00 -1.0000e+00
       -3  1    6    6    0  504 -6.81847027955e+01 +1.92441692536e+02 +6.52321271900e+02  6.83524689017e+02  0.00000000000e+00 0.0000e+00 1.0000e+00
        1  1    1    2  501    0 +1.19535703498e+02 -3.79193354307e+02 -4.98202499788e+02  6.37402631903e+02  0.00000000000e+00 0.0000e+00 -1.0000e+00
        1  1    1    2  502    0 -6.28326892316e+01 +1.22939671272e+02 +7.41710786470e+02  7.54451456606e+02  0.00000000000e+00 0.0000e+00 -1.0000e+00
#  0.1300000e+05  0.1300000e+05  0.1300000e+05  0.1300000e+05
<mgrwt>
<rscale>  2 0.18814455e+04</rscale>
<asrwt>0</asrwt>
<pdfrwt beam="1">  1        2 0.41807412e+00 0.21672268e+04</pdfrwt>
<pdfrwt beam="2">  1        2 0.16794945e+00 0.12309869e+04</pdfrwt>
<totfact> 0.54924519e-02</totfact>
</mgrwt>
<clustering>
<clus scale="  135.618">  3  6 -1 -1</clus>
<clus scale="  395.870">  4  5 -1 -1</clus>
<clus scale=" 1230.987">  2  3  1 -1</clus>
<clus scale=" 2167.227">  1  3  2 -1</clus>
</clustering>
<rwgt>
  <wgt id="1">4.8043e-06</wgt>
  <wgt id="2">3.51983e-06</wgt>
  <wgt id="3">2.69239e-06</wgt>
  <wgt id="4">3.85605e-06</wgt>
  <wgt id="5">2.8251e-06</wgt>
  <wgt id="6">2.16098e-06</wgt>
  <wgt id="7">3.17449e-06</wgt>
  <wgt id="8">2.32577e-06</wgt>
  <wgt id="9">1.77903e-06</wgt>
  <wgt id="10">2.8251e-06</wgt>
  <wgt id="11">2.8251e-06</wgt>
  <wgt id="12">2.8251e-06</wgt>
  <wgt id="13">2.8251e-06</wgt>
  <wgt id="14">2.82844e-06</wgt>
  <wgt id="15">2.82236e-06</wgt>
  <wgt id="16">2.80184e-06</wgt>
  <wgt id="17">2.85113e-06</wgt>
  <wgt id="18">2.80884e-06</wgt>
  <wgt id="19">2.84922e-06</wgt>
  <wgt id="20">2.8177e-06</wgt>
  <wgt id="21">2.83012e-06</wgt>
  <wgt id="22">2.83488e-06</wgt>
  <wgt id="23">2.81096e-06</wgt>
  <wgt id="24">2.87847e-06</wgt>
  <wgt id="25">2.79239e-06</wgt>
  <wgt id="26">2.82544e-06</wgt>
  <wgt id="27">2.82442e-06</wgt>
  <wgt id="28">2.85942e-06</wgt>
  <wgt id="29">2.81239e-06</wgt>
  <wgt id="30">2.82851e-06</wgt>
  <wgt id="31">2.82073e-06</wgt>
  <wgt id="32">2.81844e-06</wgt>
  <wgt id="33">2.83133e-06</wgt>
  <wgt id="34">2.78127e-06</wgt>
  <wgt id="35">2.90645e-06</wgt>
  <wgt id="36">2.84976e-06</wgt>
  <wgt id="37">2.81164e-06</wgt>
  <wgt id="38">2.8136e-06</wgt>
  <wgt id="39">2.83133e-06</wgt>
  <wgt id="40">2.83982e-06</wgt>
  <wgt id="41">2.81025e-06</wgt>
  <wgt id="42">2.84849e-06</wgt>
  <wgt id="43">2.78843e-06</wgt>
  <wgt id="44">2.83352e-06</wgt>
  <wgt id="45">2.82182e-06</wgt>
  <wgt id="46">2.82372e-06</wgt>
  <wgt id="47">2.82587e-06</wgt>
  <wgt id="48">2.83397e-06</wgt>
  <wgt id="49">2.82805e-06</wgt>
  <wgt id="50">2.81697e-06</wgt>
  <wgt id="51">2.83855e-06</wgt>
  <wgt id="52">2.84252e-06</wgt>
  <wgt id="53">2.82102e-06</wgt>
</rwgt>
</event>
<event>
 12      0 +2.8251000e-06 2.42598800e+02 7.54677100e-03 1.04932800e-01
        2 -1    0    0  504    0 +0.00000000000e+00 +0.00000000000e+00 +1.00277056230e+03  1.00277056230e+03  0.00000000000e+00 0.0000e+00 -1.0000e+00
        4 -1    0    0  503    0 +0.00000000000e+00 +0.00000000000e+00 -5.11849269580e+02  5.11849269580e+02  0.00000000000e+00 0.0000e+00 -1.0000e+00
       24  2    1    2    0    0 +7.55007000659e+01 -7.10285941625e+01 -5.73931684689e+01  1.42143106612e+02  7.85192337664e+01 0.0000e+00 0.0000e+00
       16  1    3    3    0    0 +8.33134257203e+01 -8.17831682512e+01 -5.17829115900e+01  1.27714852101e+02  0.00000000000e+00 0.0000e+00 -1.0000e+00
      -15  1    3    3    0    0 -7.81272565443e+00 +1.07545740888e+01 -5.61025687890e+00  1.44282545109e+01  1.77700000000e+00 0.0000e+00 1.0000e+00
       24  2    1    2    0    0 -4.04874952349e+01 +8.05767258844e+01 -7.67951191433e+01  1.40568228053e+02  7.56973605156e+01 0.0000e+00 0.0000e+00
       14  1    6    6    0    0 -4.35636302893e+01 +1.42267994529e+01 -1.11500705313e+01  4.71647726540e+01  0.00000000000e+00 0.0000e+00 -1.0000e+00
      -13  1    6    6    0    0 +3.07613505436e+00 +6.63499264315e+01 -6.56450486120e+01  9.34034553988e+01  0.00000000000e+00 0.0000e+00 1.0000e+00
       21  1    1    2  503  501 +1.06491286986e+02 +3.12441498224e+01 -2.37585725202e+02  2.62228083778e+02  0.00000000000e+00 0.0000e+00 -1.0000e+00
       21  1    1    2  504  502 -5.66161773017e+01 -6.44250236874e+01 +7.71139076049e+02  7.75893968155e+02  0.00000000000e+00 0.0000e+00 -1.0000e+00
        1  1    1    2  501    0 -8.76425365408e+01 -4.09131312972e+01 +2.26647163881e+01  9.93417731511e+01  0.00000000000e+00 0.0000e+00 -1.0000e+00
        3  1    1    2  502    0 +2.75422202528e+00 +6.45458734404e+01 +6.88915130966e+01  9.44446721307e+01  0.00000000000e+00 0.0000e+00 -1.0000e+00
#  0.1300000e+05  0.1300000e+05  0.1072886e+03  0.8232384e+02  0.1300000e+05  0.1300000e+05
<mgrwt>
<rscale>  2 0.23534146e+03</rscale>
<asrwt>  2 0.82323838e+02 0.10728857e+03</asrwt>
<pdfrwt beam="1">  2        2        2 0.15427239e+00 0.34786754e-01 0.82323838e+02 0.24259879e+03</pdfrwt>
<pdfrwt beam="2">  2        4        4 0.78746041e-01 0.37920187e-01 0.10728857e+03 0.24259879e+03</pdfrwt>
<totfact> 0.39138109e-03</totfact>
</mgrwt>
<clustering>
<clus scale="   64.156">  3  8 -1 -1</clus>
<clus scale="   82.324">  1  6  2 -1</clus>
<clus scale="  107.289">  2  5  1 -1</clus>
<clus scale="   95.486">  4  7 -1 -1</clus>
<clus scale="  214.846">  1  4  2 -1</clus>
<clus scale="  242.599">  1  3  2 -1</clus>
</clustering>
<rwgt>
  <wgt id="1">3.98645e-06</wgt>
  <wgt id="2">2.64297e-06</wgt>
  <wgt id="3">1.88421e-06</wgt>
  <wgt id="4">4.26116e-06</wgt>
  <wgt id="5">2.8251e-06</wgt>
  <wgt id="6">2.01405e-06</wgt>
  <wgt id="7">4.50383e-06</wgt>
  <wgt id="8">2.98599e-06</wgt>
  <wgt id="9">2.12875e-06</wgt>
  <wgt id="10">4.56509e-06</wgt>
  <wgt id="11">2.8251e-06</wgt>
  <wgt id="12">1.92541e-06</wgt>
  <wgt id="13">2.8251e-06</wgt>
  <wgt id="14">2.83403e-06</wgt>
  <wgt id="15">2.81779e-06</wgt>
  <wgt id="16">2.81929e-06</wgt>
  <wgt id="17">2.83171e-06</wgt>
  <wgt id="18">2.8197e-06</wgt>
  <wgt id="19">2.83311e-06</wgt>
  <wgt id="20">2.82079e-06</wgt>
  <wgt id="21">2.82805e-06</wgt>
  <wgt id="22">2.82519e-06</wgt>
  <wgt id="23">2.82517e-06</wgt>
  <wgt id="24">2.82367e-06</wgt>
  <wgt id="25">2.82593e-06</wgt>
  <wgt id="26">2.82922e-06</wgt>
  <wgt id="27">2.81974e-06</wgt>
  <wgt id="28">2.8477e-06</wgt>
  <wgt id="29">2.8169e-06</wgt>
  <wgt id="30">2.79802e-06</wgt>
  <wgt id="31">2.85837e-06</wgt>
  <wgt id="32">2.82936e-06</wgt>
  <wgt id="33">2.82133e-06</wgt>
  <wgt id="34">2.8489e-06</wgt>
  <wgt id="35">2.78506e-06</wgt>
  <wgt id="36">2.80992e-06</wgt>
  <wgt id="37">2.83573e-06</wgt>
  <wgt id="38">2.79981e-06</wgt>
  <wgt id="39">2.83745e-06</wgt>
  <wgt id="40">2.81623e-06</wgt>
  <wgt id="41">2.83623e-06</wgt>
  <wgt id="42">2.81951e-06</wgt>
  <wgt id="43">2.83664e-06</wgt>
  <wgt id="44">2.82201e-06</wgt>
  <wgt id="45">2.82679e-06</wgt>
  <wgt id="46">2.83073e-06</wgt>
  <wgt id="47">2.82173e-06</wgt>
  <wgt id="48">2.83145e-06</wgt>
  <wgt id="49">2.82303e-06</wgt>
  <wgt id="50">2.85565e-06</wgt>
  <wgt id="51">2.81105e-06</wgt>
  <wgt id="52">2.83645e-06</wgt>
  <wgt id="53">2.82218e-06</wgt>
</rwgt>
</event>
<event>
 10      0 +2.8251000e-06 3.12493700e+02 7.54677100e-03 1.05343500e-01
        2 -1    0    0  502    0 +0.00000000000e+00 +0.00000000000e+00 +3.33341804720e+03  3.33341804720e+03  0.00000000000e+00 0.0000e+00 -1.0000e+00
        2 -1    0    0  501    0 +0.00000000000e+00 +0.00000000000e+00 -4.15538663390e+02  4.15538663390e+02  0.00000000000e+00 0.0000e+00 -1.0000e+00
       24  2    1    2    0    0 -2.21700272393e+02 -1.87879333517e+02 +1.83869799323e+03  1.86320165505e+03  7.91229569517e+01 0.0000e+00 0.0000e+00
        4  1    3    3  503    0 -1.89003566799e+02 -1.24183886441e+02 +1.50613054148e+03  1.52301450876e+03  0.00000000000e+00 0.0000e+00 -1.0000e+00
       -3  1    3    3    0  503 -3.26967055943e+01 -6.36954470762e+01 +3.32567451753e+02  3.40187146289e+02  0.00000000000e+00 0.0000e+00 1.0000e+00
       24  2    1    2    0    0 -3.83868671189e+01 +1.74499966748e+00 -2.31444404812e+02  2.48278271528e+02  8.12341738639e+01 0.0000e+00 0.0000e+00
        4  1    6    6  504    0 -4.33950853413e+01 -1.36442193570e+01 -2.26975369294e+02  2.31488912088e+02  0.00000000000e+00 0.0000e+00 -1.0000e+00
       -3  1    6    6    0  504 +5.00821822244e+00 +1.53892190245e+01 -4.46903551767e+00  1.67893594400e+01  0.00000000000e+00 0.0000e+00 1.0000e+00
        1  1    1    2  501    0 +3.67282629661e+02 +2.44234660474e+02 +1.43254544600e+02  4.63755284580e+02  0.00000000000e+00 0.0000e+00 -1.0000e+00
        1  1    1    2  502    0 -1.07195490149e+02 -5.81003266243e+01 +1.16737125079e+03  1.17372149944e+03  0.00000000000e+00 0.0000e+00 -1.0000e+00
#  0.1300000e+05  0.1300000e+05  0.1300000e+05  0.1300000e+05
<mgrwt>
<rscale>  2 0.22856721e+03</rscale>
<asrwt>0</asrwt>
<pdfrwt beam="1">  1        2 0.51283355e+00 0.31249367e+03</pdfrwt>
<pdfrwt beam="2">  1        2 0.63929025e-01 0.89440056e+02</pdfrwt>
<totfact> 0.16340502e-01</totfact>
</mgrwt>
<clustering>
<clus scale="   89.440">  2  4  1 -1</clus>
<clus scale="  121.558">  2  6  1 -1</clus>
<clus scale="  301.969">  2  5  1 -1</clus>
<clus scale="  312.494">  1  3  2 -1</clus>
</clustering>
<rwgt>
  <wgt id="1">5.39698e-06</wgt>
  <wgt id="2">3.57141e-06</wgt>
  <wgt id="3">2.54289e-06</wgt>
  <wgt id="4">4.26919e-06</wgt>
  <wgt id="5">2.8251e-06</wgt>
  <wgt id="6">2.01151e-06</wgt>
  <wgt id="7">3.47252e-06</wgt>
  <wgt id="8">2.29791e-06</wgt>
  <wgt id="9">1.63615e-06</wgt>
  <wgt id="10">2.8251e-06</wgt>
  <wgt id="11">2.8251e-06</wgt>
  <wgt id="12">2.8251e-06</wgt>
  <wgt id="13">2.8251e-06</wgt>
  <wgt id="14">2.82856e-06</wgt>
  <wgt id="15">2.82222e-06</wgt>
  <wgt id="16">2.81033e-06</wgt>
  <wgt id="17">2.84153e-06</wgt>
  <wgt id="18">2.80937e-06</wgt>
  <wgt id="19">2.84846e-06</wgt>
  <wgt id="20">2.81484e-06</wgt>
  <wgt id="21">2.83201e-06</wgt>
  <wgt id="22">2.83403e-06</wgt>
  <wgt id="23">2.81241e-06</wgt>
  <wgt id="24">2.87428e-06</wgt>
  <wgt id="25">2.79495e-06</wgt>
  <wgt id="26">2.82382e-06</wgt>
  <wgt id="27">2.8269e-06</wgt>
  <wgt id="28">2.83631e-06</wgt>
  <wgt id="29">2.82059e-06</wgt>
  <wgt id="30">2.82578e-06</wgt>
  <wgt id="31">2.82401e-06</wgt>
  <wgt id="32">2.81622e-06</wgt>
  <wgt id="33">2.83358e-06</wgt>
  <wgt id="34">2.78862e-06</wgt>
  <wgt id="35">2.89195e-06</wgt>
  <wgt id="36">2.8457e-06</wgt>
  <wgt id="37">2.81455e-06</wgt>
  <wgt id="38">2.81601e-06</wgt>
  <wgt id="39">2.82979e-06</wgt>
  <wgt id="40">2.84459e-06</wgt>
  <wgt id="41">2.80574e-06</wgt>
  <wgt id="42">2.84425e-06</wgt>
  <wgt id="43">2.7915e-06</wgt>
  <wgt id="44">2.83761e-06</wgt>
  <wgt id="45">2.82013e-06</wgt>
  <wgt id="46">2.82579e-06</wgt>
  <wgt id="47">2.82501e-06</wgt>
  <wgt id="48">2.81193e-06</wgt>
  <wgt id="49">2.83738e-06</wgt>
  <wgt id="50">2.81285e-06</wgt>
  <wgt id="51">2.84181e-06</wgt>
  <wgt id="52">2.8297e-06</wgt>
  <wgt id="53">2.82424e-06</wgt>
</rwgt>
</event>
<event>
 11      0 +2.8251000e-06 8.20349000e+02 7.54677100e-03 9.63161500e-02
        2 -1    0    0  502    0 +0.00000000000e+00 +0.00000000000e+00 +6.53950601530e+02  6.53950601530e+02  0.00000000000e+00 0.0000e+00 -1.0000e+00
       -1 -1    0    0    0  501 +0.00000000000e+00 +0.00000000000e+00 -4.89309476520e+02  4.89309476520e+02  0.00000000000e+00 0.0000e+00 1.0000e+00
       24  2    1    2    0    0 +6.57956723234e+01 -5.82981399601e+00 +4.97536830936e+01  1.15909168176e+02  8.12185265699e+01 0.0000e+00 0.0000e+00
        4  1    3    3  504    0 +1.45175318554e+01 -3.78536675315e+01 +3.52826309586e+01  5.37449804552e+01  0.00000000000e+00 0.0000e+00 -1.0000e+00
       -3  1    3    3    0  504 +5.12781404680e+01 +3.20238535355e+01 +1.44710521350e+01  6.21641877210e+01  0.00000000000e+00 0.0000e+00 1.0000e+00
       24  2    1    2    0    0 +9.95566190593e+00 +9.60155418273e+00 +3.00930227103e+02  3.11543185676e+02  7.94282689632e+01 0.0000e+00 0.0000e+00
        2  1    6    6  505    0 +2.70570552146e+00 +4.46576794749e+01 +1.74283724569e+02  1.79934559849e+02  0.00000000000e+00 0.0000e+00 -1.0000e+00
       -1  1    6    6    0  505 +7.24995638447e+00 -3.50561252922e+01 +1.26646502533e+02  1.31608625827e+02  0.00000000000e+00 0.0000e+00 1.0000e+00
       21  1    1    2  503  501 -1.43442650788e+02 +2.27787582207e+01 -5.27035842955e+01  1.54506743182e+02  0.00000000000e+00 0.0000e+00 1.0000e+00
        3  1    1    2  502    0 +2.90757657981e+02 +3.54106792894e+01 +2.42779946207e+00  2.92916073463e+02  0.00000000000e+00 0.0000e+00 -1.0000e+00
       -4  1    1    2    0  503 -2.23066341422e+02 -6.19611776969e+01 -1.35767000353e+02  2.68384907552e+02  0.00000000000e+00 0.0000e+00 1.0000e+00
#  0.1300000e+05  0.1300000e+05  0.6839257e+02  0.2958772e+03  0.1300000e+05
<mgrwt>
<rscale>  1 0.46063998e+03</rscale>
<asrwt>  2 0.68392567e+02 0.29587720e+03</asrwt>
<pdfrwt beam="1">  1        2 0.10060778e+00 0.82034899e+03</pdfrwt>
<pdfrwt beam="2">  1       -1 0.75278381e-01 0.81554997e+02</pdfrwt>
<totfact> 0.15305084e-01</totfact>
</mgrwt>
<clustering>
<clus scale="   68.393">  5  7 -1 -1</clus>
<clus scale="   81.555">  2  4  1 -1</clus>
<clus scale="  372.338">  3  5 -1 -1</clus>
<clus scale="  295.877">  3  6 -1 -1</clus>
<clus scale="  820.349">  1  3  2 -1</clus>
</clustering>
<rwgt>
  <wgt id="1">3.7014e-06</wgt>
  <wgt id="2">3.0725e-06</wgt>
  <wgt id="3">2.6289e-06</wgt>
  <wgt id="4">3.40337e-06</wgt>
  <wgt id="5">2.8251e-06</wgt>
  <wgt id="6">2.41722e-06</wgt>
  <wgt id="7">3.12846e-06</wgt>
  <wgt id="8">2.5969e-06</wgt>
  <wgt id="9">2.22197e-06</wgt>
  <wgt id="10">4.44472e-06</wgt>
  <wgt id="11">2.8251e-06</wgt>
  <wgt id="12">1.96063e-06</wgt>
  <wgt id="13">2.8251e-06</wgt>
  <wgt id="14">2.82972e-06</wgt>
  <wgt id="15">2.82155e-06</wgt>
  <wgt id="16">2.84076e-06</wgt>
  <wgt id="17">2.80766e-06</wgt>
  <wgt id="18">2.81e-06</wgt>
  <wgt id="19">2.84773e-06</wgt>
  <wgt id="20">2.84718e-06</wgt>
  <wgt id="21">2.81028e-06</wgt>
  <wgt id="22">2.8372e-06</wgt>
  <wgt id="23">2.80815e-06</wgt>
  <wgt id="24">2.8881e-06</wgt>
  <wgt id="25">2.78661e-06</wgt>
  <wgt id="26">2.82531e-06</wgt>
  <wgt id="27">2.82513e-06</wgt>
  <wgt id="28">2.85709e-06</wgt>
  <wgt id="29">2.81372e-06</wgt>
  <wgt id="30">2.81915e-06</wgt>
  <wgt id="31">2.83212e-06</wgt>
  <wgt id="32">2.844e-06</wgt>
  <wgt id="33">2.80717e-06</wgt>
  <wgt id="34">2.81236e-06</wgt>
  <wgt id="35">2.84815e-06</wgt>
  <wgt id="36">2.8315e-06</wgt>
  <wgt id="37">2.81746e-06</wgt>
  <wgt id="38">2.86402e-06</wgt>
  <wgt id="39">2.80741e-06</wgt>
  <wgt id="40">2.81461e-06</wgt>
  <wgt id="41">2.83652e-06</wgt>
  <wgt id="42">2.84145e-06</wgt>
  <wgt id="43">2.78375e-06</wgt>
  <wgt id="44">2.83998e-06</wgt>
  <wgt id="45">2.81979e-06</wgt>
  <wgt id="46">2.82891e-06</wgt>
  <wgt id="47">2.82437e-06</wgt>
  <wgt id="48">2.81128e-06</wgt>
  <wgt id="49">2.83343e-06</wgt>
  <wgt id="50">2.82556e-06</wgt>
  <wgt id="51">2.83134e-06</wgt>
  <wgt id="52">2.8177e-06</wgt>
  <wgt id="53">2.82716e-06</wgt>
</rwgt>
</event>
<event>
 11      0 +2.8251000e-06 3.95751000e+02 7.54677100e-03 1.02424300e-01
        2 -1    0    0  503    0 +0.00000000000e+00 +0.00000000000e+00 +3.02764237600e+03  3.02764237600e+03  0.00000000000e+00 0.0000e+00 -1.0000e+00
        2 -1    0    0  502    0 +0.00000000000e+00 +0.00000000000e+00 -3.70005519370e+03  3.70005519370e+03  0.00000000000e+00 0.0000e+00 -1.0000e+00
       24  2    1    2    0    0 -5.73779004168e+00 +4.36702714380e+02 +2.69891962297e+02  5.19615224933e+02  8.01007346257e+01 0.0000e+00 0.0000e+00
        4  1    3    3  504    0 +2.34438190610e+01 +3.47480262531e+02 +1.92351294107e+02  3.97858223297e+02  0.00000000000e+00 0.0000e+00 -1.0000e+00
       -3  1    3    3    0  504 -2.91816091027e+01 +8.92224518494e+01 +7.75406681905e+01  1.21757001636e+02  0.00000000000e+00 0.0000e+00 1.0000e+00
       24  2    1    2    0    0 -6.29862979045e+01 -1.45697625780e+01 -2.37208812548e+03  2.37436909982e+03  8.15291081154e+01 0.0000e+00 0.0000e+00
        4  1    6    6  505    0 -8.23845083706e+01 -1.77865052839e+01 -1.88010504268e+03  1.88199323551e+03  0.00000000000e+00 0.0000e+00 -1.0000e+00
       -3  1    6    6    0  505 +1.93982104661e+01 +3.21674270594e+00 -4.91983082792e+02  4.92375864312e+02  0.00000000000e+00 0.0000e+00 1.0000e+00
       21  1    1    2  503  501 +3.75680984881e+01 -2.84350023458e+01 +2.57489120130e+03  2.57532223420e+03  0.00000000000e+00 0.0000e+00 -1.0000e+00
        1  1    1    2  501    0 -1.55030769641e+02 -1.58384152798e+02 -4.99087720158e+02  5.46084821072e+02  0.00000000000e+00 0.0000e+00 -1.0000e+00
        1  1    1    2  502    0 +1.86186759099e+02 -2.35313796658e+02 -6.46020135669e+02  7.12306189677e+02  0.00000000000e+00 0.0000e+00 -1.0000e+00
#  0.1300000e+05  0.1300000e+05  0.4711594e+02  0.1300000e+05  0.1300000e+05
<mgrwt>
<rscale>  2 0.28279014e+03</rscale>
<asrwt>  1 0.47115935e+02</asrwt>
<pdfrwt beam="1">  2        2        2 0.46579113e+00 0.69593740e-01 0.47115935e+02 0.39575103e+03</pdfrwt>
<pdfrwt beam="2">  1        2 0.56923926e+00 0.10317890e+03</pdfrwt>
<totfact> 0.46587514e-04</totfact>
</mgrwt>
<clustering>
<clus scale="   47.116">  1  5  2 -1</clus>
<clus scale="  103.179">  2  4  1 -1</clus>
<clus scale="  242.924">  2  6  1 -1</clus>
<clus scale="  387.494">  2  7  1 -1</clus>
<clus scale="  395.751">  1  3  2 -1</clus>
</clustering>
<rwgt>
  <wgt id="1">5.80248e-06</wgt>
  <wgt id="2">3.89073e-06</wgt>
  <wgt id="3">2.79518e-06</wgt>
  <wgt id="4">4.21325e-06</wgt>
  <wgt id="5">2.8251e-06</wgt>
  <wgt id="6">2.02961e-06</wgt>
  <wgt id="7">3.22798e-06</wgt>
  <wgt id="8">2.16445e-06</wgt>
  <wgt id="9">1.55499e-06</wgt>
  <wgt id="10">3.71847e-06</wgt>
  <wgt id="11">2.8251e-06</wgt>
  <wgt id="12">2.28344e-06</wgt>
  <wgt id="13">2.8251e-06</wgt>
  <wgt id="14">2.8292e-06</wgt>
  <wgt id="15">2.82178e-06</wgt>
  <wgt id="16">2.79015e-06</wgt>
  <wgt id="17">2.86462e-06</wgt>
  <wgt id="18">2.80522e-06</wgt>
  <wgt id="19">2.85486e-06</wgt>
  <wgt id="20">2.81857e-06</wgt>
  <wgt id="21">2.82949e-06</wgt>
  <wgt id="22">2.83766e-06</wgt>
  <wgt id="23">2.80738e-06</wgt>
  <wgt id="24">2.89212e-06</wgt>
  <wgt id="25">2.78438e-06</wgt>
  <wgt id="26">2.82503e-06</wgt>
  <wgt id="27">2.82524e-06</wgt>
  <wgt id="28">2.81727e-06</wgt>
  <wgt id="29">2.82729e-06</wgt>
  <wgt id="30">2.82165e-06</wgt>
  <wgt id="31">2.82934e-06</wgt>
  <wgt id="32">2.80154e-06</wgt>
  <wgt id="33">2.84777e-06</wgt>
  <wgt id="34">2.78199e-06</wgt>
  <wgt id="35">2.90471e-06</wgt>
  <wgt id="36">2.86081e-06</wgt>
  <wgt id="37">2.80488e-06</wgt>
  <wgt id="38">2.81348e-06</wgt>
  <wgt id="39">2.83151e-06</wgt>
  <wgt id="40">2.86289e-06</wgt>
  <wgt id="41">2.78723e-06</wgt>
  <wgt id="42">2.84426e-06</wgt>
  <wgt id="43">2.79649e-06</wgt>
  <wgt id="44">2.83651e-06</wgt>
  <wgt id="45">2.82071e-06</wgt>
  <wgt id="46">2.82537e-06</wgt>
  <wgt id="47">2.82482e-06</wgt>
  <wgt id="48">2.84157e-06</wgt>
  <wgt id="49">2.82982e-06</wgt>
  <wgt id="50">2.81415e-06</wgt>
  <wgt id="51">2.84393e-06</wgt>
  <wgt id="52">2.83932e-06</wgt>
  <wgt id="53">2.82243e-06</wgt>
</rwgt>
</event>
<event>
 11      0 +2.8251000e-06 2.23495200e+02 7.54677100e-03 1.08074100e-01
        2 -1    0    0  503    0 +0.00000000000e+00 +0.00000000000e+00 +9.74063785370e+02  9.74063785370e+02  0.00000000000e+00 0.0000e+00 -1.0000e+00
        2 -1    0    0  502    0 +0.00000000000e+00 +0.00000000000e+00 -1.61134845030e+03  1.61134845030e+03  0.00000000000e+00 0.0000e+00 -1.0000e+00
       24  2    1    2    0    0 +1.52237500410e+02 -6.51095565120e+01 -1.06225441845e+03  1.07802688183e+03  7.96366595447e+01 0.0000e+00 0.0000e+00
       12  1    3    3    0    0 +9.71816790451e+01 -6.37092975440e+01 -8.79825521847e+02  8.87466113285e+02  0.00000000000e+00 0.0000e+00 -1.0000e+00
      -11  1    3    3    0    0 +5.50558213649e+01 -1.40025896794e+00 -1.82428896603e+02  1.90560768542e+02  0.00000000000e+00 0.0000e+00 1.0000e+00
       24  2    1    2    0    0 +4.77755271871e+01 -2.90079035967e+00 +3.50465022681e+02  3.63151682285e+02  8.22344005945e+01 0.0000e+00 0.0000e+00
        2  1    6    6  504    0 +5.67716745565e+01 +2.33174936291e+01 +1.73639556221e+02  1.84166837476e+02  0.00000000000e+00 0.0000e+00 -1.0000e+00
       -1  1    6    6    0  504 -8.99614736940e+00 -2.62182839888e+01 +1.76825466460e+02  1.78984844809e+02  0.00000000000e+00 0.0000e+00 1.0000e+00
       21  1    1    2  503  501 -1.15106221362e+01 +2.64256391654e+02 +3.77933882229e+02  4.61300286461e+02  0.00000000000e+00 0.0000e+00 -1.0000e+00
        1  1    1    2  501    0 -4.56898746249e+01 -2.08589274933e+02 -4.37393374879e+02  4.86734028652e+02  0.00000000000e+00 0.0000e+00 -1.0000e+00
        1  1    1    2  502    0 -1.42812530836e+02 +1.23432301508e+01 +1.33964223489e+02  1.96199356445e+02  0.00000000000e+00 0.0000e+00 -1.0000e+00
#  0.1300000e+05  0.1300000e+05  0.2735943e+03  0.1300000e+05  0.1300000e+05
<mgrwt>
<rscale>  3 0.18928513e+03</rscale>
<asrwt>0</asrwt>
<pdfrwt beam="1">  1        2 0.14985597e+00 0.93933970e+02</pdfrwt>
<pdfrwt beam="2">  1        2 0.24789976e+00 0.18256992e+03</pdfrwt>
<totfact> 0.72007774e-02</totfact>
</mgrwt>
<clustering>
<clus scale="   93.934">  1  4  2 -1</clus>
<clus scale="  131.001">  1  7  2 -1</clus>
<clus scale="  182.570">  2  3  1 -1</clus>
<clus scale="  273.594">  1  5  2 -1</clus>
<clus scale="  273.594">  1  3  2 -1</clus>
</clustering>
<rwgt>
  <wgt id="1">6.50656e-06</wgt>
  <wgt id="2">3.43723e-06</wgt>
  <wgt id="3">2.0394e-06</wgt>
  <wgt id="4">5.34781e-06</wgt>
  <wgt id="5">2.8251e-06</wgt>
  <wgt id="6">1.6762e-06</wgt>
  <wgt id="7">4.50936e-06</wgt>
  <wgt id="8">2.38217e-06</wgt>
  <wgt id="9">1.4134e-06</wgt>
  <wgt id="10">2.8251e-06</wgt>
  <wgt id="11">2.8251e-06</wgt>
  <wgt id="12">2.8251e-06</wgt>
  <wgt id="13">2.8251e-06</wgt>
  <wgt id="14">2.82804e-06</wgt>
  <wgt id="15">2.82264e-06</wgt>
  <wgt id="16">2.80855e-06</wgt>
  <wgt id="17">2.84347e-06</wgt>
  <wgt id="18">2.8109e-06</wgt>
  <wgt id="19">2.84615e-06</wgt>
  <wgt id="20">2.8164e-06</wgt>
  <wgt id="21">2.83092e-06</wgt>
  <wgt id="22">2.83346e-06</wgt>
  <wgt id="23">2.81316e-06</wgt>
  <wgt id="24">2.87094e-06</wgt>
  <wgt id="25">2.79684e-06</wgt>
  <wgt id="26">2.82541e-06</wgt>
  <wgt id="27">2.82461e-06</wgt>
  <wgt id="28">2.87791e-06</wgt>
  <wgt id="29">2.80598e-06</wgt>
  <wgt id="30">2.83133e-06</wgt>
  <wgt id="31">2.81721e-06</wgt>
  <wgt id="32">2.82661e-06</wgt>
  <wgt id="33">2.82363e-06</wgt>
  <wgt id="34">2.78272e-06</wgt>
  <wgt id="35">2.90344e-06</wgt>
  <wgt id="36">2.84858e-06</wgt>
  <wgt id="37">2.8119e-06</wgt>
  <wgt id="38">2.81338e-06</wgt>
  <wgt id="39">2.83125e-06</wgt>
  <wgt id="40">2.82864e-06</wgt>
  <wgt id="41">2.82182e-06</wgt>
  <wgt id="42">2.8501e-06</wgt>
  <wgt id="43">2.78518e-06</wgt>
  <wgt id="44">2.83162e-06</wgt>
  <wgt id="45">2.82277e-06</wgt>
  <wgt id="46">2.82329e-06</wgt>
  <wgt id="47">2.82624e-06</wgt>
  <wgt id="48">2.82453e-06</wgt>
  <wgt id="49">2.8301e-06</wgt>
  <wgt id="50">2.81703e-06</wgt>
  <wgt id="51">2.83748e-06</wgt>
  <wgt id="52">2.84159e-06</wgt>
  <wgt id="53">2.82093e-06</wgt>
</rwgt>
</event>
<event>
 12      0 +2.8251000e-06 1.25446600e+02 7.54677100e-03 1.14910300e-01
       -3 -1    0    0    0  501 +0.00000000000e+00 +0.00000000000e+00 +1.46748568500e+02  1.46748568500e+02  0.00000000000e+00 0.0000e+00 1.0000e+00
        2 -1    0    0  504    0 +0.00000000000e+00 +0.00000000000e+00 -1.47448919070e+03  1.47448919070e+03  0.00000000000e+00 0.0000e+00 -1.0000e+00
       24  2    1    2    0    0 +4.27852429513e+01 +2.04190320455e+01 +4.67317577952e+01  1.05435755343e+02  8.17638516345e+01 0.0000e+00 0.0000e+00
        4  1    3    3  505    0 -1.17158524536e+01 +2.84494241336e+01 +3.92020158282e+01  4.98340142598e+01  0.00000000000e+00 0.0000e+00 -1.0000e+00
       -3  1    3    3    0  505 +5.45010954049e+01 -8.03039208814e+00 +7.52974196695e+00  5.56017410835e+01  0.00000000000e+00 0.0000e+00 1.0000e+00
       24  2    1    2    0    0 +7.99646029459e+00 -6.53088937667e+01 -3.95701782513e+02  4.11530609347e+02  9.19148886946e+01 0.0000e+00 0.0000e+00
       12  1    6    6    0    0 +1.32739154846e+01 -5.77822424975e+01 -3.97723763280e+02  4.02118361006e+02  0.00000000000e+00 0.0000e+00 -1.0000e+00
      -11  1    6    6    0    0 -5.27745518999e+00 -7.52665126920e+00 +2.02198076771e+00  9.41224834115e+00  0.00000000000e+00 0.0000e+00 1.0000e+00
       21  1    1    2  503  502 +1.89373540050e+01 +4.26360713577e+01 -1.65468875808e+01  4.95000752135e+01  0.00000000000e+00 0.0000e+00 1.0000e+00
       21  1    1    2  504  501 +2.03585420390e+01 +3.24377173731e+01 -3.15349642061e+02  3.17666605879e+02  0.00000000000e+00 0.0000e+00 -1.0000e+00
        1  1    1    2  502    0 -1.60374891418e+02 -4.33014110819e+01 -6.44490040268e+02  6.65554302822e+02  0.00000000000e+00 0.0000e+00 -1.0000e+00
       -4  1    1    2    0  503 +7.02972921282e+01 +1.31174840723e+01 -2.38402757192e+00  7.15504105957e+01  0.00000000000e+00 0.0000e+00 1.0000e+00
#  0.1300000e+05  0.1300000e+05  0.4561469e+02  0.4066974e+02  0.1300000e+05  0.1300000e+05
<mgrwt>
<rscale>  2 0.12296313e+03</rscale>
<asrwt>  2 0.40669737e+02 0.45614689e+02</asrwt>
<pdfrwt beam="1">  2        2        2 0.22684449e+00 0.17613139e+00 0.40669737e+02 0.12544657e+03</pdfrwt>
<pdfrwt beam="2">  1       -3 0.22576703e-01 0.95554941e+02</pdfrwt>
<totfact> 0.57992445e-02</totfact>
</mgrwt>
<clustering>
<clus scale="   40.670">  2  6  1 -1</clus>
<clus scale="   45.615">  5  8 -1 -1</clus>
<clus scale="   95.555">  1  3  2 -1</clus>
<clus scale="  103.512">  2  4  1 -1</clus>
<clus scale="  141.030">  2  7  1 -1</clus>
<clus scale="  152.030">  2  3  1 -1</clus>
</clustering>
<rwgt>
  <wgt id="1">4.41543e-06</wgt>
  <wgt id="2">2.79537e-06</wgt>
  <wgt id="3">1.93287e-06</wgt>
  <wgt id="4">4.46239e-06</wgt>
  <wgt id="5">2.8251e-06</wgt>
  <wgt id="6">1.95342e-06</wgt>
  <wgt id="7">4.3783e-06</wgt>
  <wgt id="8">2.77186e-06</wgt>
  <wgt id="9">1.91661e-06</wgt>
  <wgt id="10">4.94663e-06</wgt>
  <wgt id="11">2.8251e-06</wgt>
  <wgt id="12">1.83402e-06</wgt>
  <wgt id="13">2.8251e-06</wgt>
  <wgt id="14">2.83229e-06</wgt>
  <wgt id="15">2.81916e-06</wgt>
  <wgt id="16">2.79828e-06</wgt>
  <wgt id="17">2.85517e-06</wgt>
  <wgt id="18">2.84e-06</wgt>
  <wgt id="19">2.80281e-06</wgt>
  <wgt id="20">2.80771e-06</wgt>
  <wgt id="21">2.83674e-06</wgt>
  <wgt id="22">2.84111e-06</wgt>
  <wgt id="23">2.80229e-06</wgt>
  <wgt id="24">2.84668e-06</wgt>
  <wgt id="25">2.81177e-06</wgt>
  <wgt id="26">2.8278e-06</wgt>
  <wgt id="27">2.82143e-06</wgt>
  <wgt id="28">2.84699e-06</wgt>
  <wgt id="29">2.81709e-06</wgt>
  <wgt id="30">2.84533e-06</wgt>
  <wgt id="31">2.7978e-06</wgt>
  <wgt id="32">2.81918e-06</wgt>
  <wgt id="33">2.83067e-06</wgt>
  <wgt id="34">2.78624e-06</wgt>
  <wgt id="35">2.89642e-06</wgt>
  <wgt id="36">2.84639e-06</wgt>
  <wgt id="37">2.81229e-06</wgt>
  <wgt id="38">2.81797e-06</wgt>
  <wgt id="39">2.82862e-06</wgt>
  <wgt id="40">2.83189e-06</wgt>
  <wgt id="41">2.82008e-06</wgt>
  <wgt id="42">2.83721e-06</wgt>
  <wgt id="43">2.80506e-06</wgt>
  <wgt id="44">2.80649e-06</wgt>
  <wgt id="45">2.83241e-06</wgt>
  <wgt id="46">2.857e-06</wgt>
  <wgt id="47">2.80224e-06</wgt>
  <wgt id="48">2.82195e-06</wgt>
  <wgt id="49">2.82996e-06</wgt>
  <wgt id="50">2.82154e-06</wgt>
  <wgt id="51">2.81498e-06</wgt>
  <wgt id="52">2.76391e-06</wgt>
  <wgt id="53">2.8448e-06</wgt>
</rwgt>
</event>
<event>
 10      0 +2.8251000e-06 2.73435600e+02 7.54677100e-03 1.05036000e-01
        2 -1    0    0  502    0 +0.00000000000e+00 +0.00000000000e+00 +5.31908197850e+02  5.31908197850e+02  0.00000000000e+00 0.0000e+00 -1.0000e+00
        4 -1    0    0  501    0 +0.00000000000e+00 +0.00000000000e+00 -9.25920111000e+01  9.25920111000e+01  0.00000000000e+00 0.0000e+00 -1.0000e+00
       24  2    1    2    0    0 +3.45982288649e+01 +3.53906995857e+01 +1.27645571353e+01  8.87200070393e+01  7.25173542846e+01 0.0000e+00 0.0000e+00
        4  1    3    3  503    0 +3.14272310883e+01 +3.95160249992e+01 -2.09083439952e+01  5.46474696051e+01  0.00000000000e+00 0.0000e+00 -1.0000e+00
       -3  1    3    3    0  503 +3.17099777657e+00 -4.12532541345e+00 +3.36729011305e+01  3.40725374342e+01  0.00000000000e+00 0.0000e+00 1.0000e+00
       24  2    1    2    0    0 +3.97844038502e+01 -7.15131253099e+01 +5.75192031672e+01  1.29122218959e+02  8.16526963096e+01 0.0000e+00 0.0000e+00
        2  1    6    6  504    0 +3.82600010716e+01 -7.69545937519e+00 -5.50994821632e+00  3.94132884487e+01  0.00000000000e+00 0.0000e+00 -1.0000e+00
       -1  1    6    6    0  504 +1.52440277856e+00 -6.38176659348e+01 +6.30291513835e+01  8.97089305104e+01  0.00000000000e+00 0.0000e+00 1.0000e+00
        1  1    1    2  501    0 -1.06672657243e+02 +2.58538273052e+00 +3.26880177526e+02  3.43855188221e+02  0.00000000000e+00 0.0000e+00 -1.0000e+00
        3  1    1    2  502    0 +3.22900245284e+01 +3.35370429937e+01 +4.21522489216e+01  6.28027947304e+01  0.00000000000e+00 0.0000e+00 -1.0000e+00
#  0.1300000e+05  0.1300000e+05  0.1300000e+05  0.1300000e+05
<mgrwt>
<rscale>  2 0.23361694e+03</rscale>
<asrwt>0</asrwt>
<pdfrwt beam="1">  1        2 0.81832030e-01 0.27343556e+03</pdfrwt>
<pdfrwt beam="2">  1        4 0.14244925e-01 0.14569757e+03</pdfrwt>
<totfact> 0.16306624e+01</totfact>
</mgrwt>
<clustering>
<clus scale="   48.033">  3  6 -1 -1</clus>
<clus scale="  104.267">  4  5 -1 -1</clus>
<clus scale="  145.698">  2  3  1 -1</clus>
<clus scale="  273.436">  1  3  2 -1</clus>
</clustering>
<rwgt>
  <wgt id="1">3.68339e-06</wgt>
  <wgt id="2">2.4409e-06</wgt>
  <wgt id="3">1.7396e-06</wgt>
  <wgt id="4">4.26316e-06</wgt>
  <wgt id="5">2.8251e-06</wgt>
  <wgt id="6">2.01341e-06</wgt>
  <wgt id="7">4.60391e-06</wgt>
  <wgt id="8">3.05091e-06</wgt>
  <wgt id="9">2.17434e-06</wgt>
  <wgt id="10">2.8251e-06</wgt>
  <wgt id="11">2.8251e-06</wgt>
  <wgt id="12">2.8251e-06</wgt>
  <wgt id="13">2.8251e-06</wgt>
  <wgt id="14">2.83134e-06</wgt>
  <wgt id="15">2.81997e-06</wgt>
  <wgt id="16">2.82703e-06</wgt>
  <wgt id="17">2.82286e-06</wgt>
  <wgt id="18">2.82122e-06</wgt>
  <wgt id="19">2.83081e-06</wgt>
  <wgt id="20">2.81968e-06</wgt>
  <wgt id="21">2.82876e-06</wgt>
  <wgt id="22">2.82444e-06</wgt>
  <wgt id="23">2.82604e-06</wgt>
  <wgt id="24">2.82084e-06</wgt>
  <wgt id="25">2.8275e-06</wgt>
  <wgt id="26">2.82985e-06</wgt>
  <wgt id="27">2.8186e-06</wgt>
  <wgt id="28">2.837e-06</wgt>
  <wgt id="29">2.82072e-06</wgt>
  <wgt id="30">2.83974e-06</wgt>
  <wgt id="31">2.80343e-06</wgt>
  <wgt id="32">2.82321e-06</wgt>
  <wgt id="33">2.82679e-06</wgt>
  <wgt id="34">2.80667e-06</wgt>
  <wgt id="35">2.85754e-06</wgt>
  <wgt id="36">2.83945e-06</wgt>
  <wgt id="37">2.8175e-06</wgt>
  <wgt id="38">2.82483e-06</wgt>
  <wgt id="39">2.82507e-06</wgt>
  <wgt id="40">2.82501e-06</wgt>
  <wgt id="41">2.82747e-06</wgt>
  <wgt id="42">2.82248e-06</wgt>
  <wgt id="43">2.82896e-06</wgt>
  <wgt id="44">2.83198e-06</wgt>
  <wgt id="45">2.82231e-06</wgt>
  <wgt id="46">2.82875e-06</wgt>
  <wgt id="47">2.82318e-06</wgt>
  <wgt id="48">2.80483e-06</wgt>
  <wgt id="49">2.83543e-06</wgt>
  <wgt id="50">2.82668e-06</wgt>
  <wgt id="51">2.80479e-06</wgt>
  <wgt id="52">2.82143e-06</wgt>
  <wgt id="53">2.82597e-06</wgt>
</rwgt>
</event>
<event>
 10      0 +2.8251000e-06 1.70731900e+02 7.54677100e-03 1.12114100e-01
        2 -1    0    0  502    0 +0.00000000000e+00 +0.00000000000e+00 +5.60022266450e+01  5.60022266450e+01  0.00000000000e+00 0.0000e+00 -1.0000e+00
        2 -1    0    0  501    0 +0.00000000000e+00 +0.00000000000e+00 -9.42813893730e+02  9.42813893730e+02  0.00000000000e+00 0.0000e+00 -1.0000e+00
       24  2    1    2    0    0 +3.75496142308e+00 -4.27596117141e+01 -2.50213615635e+02  2.66264493293e+02  8.02959700766e+01 0.0000e+00 0.0000e+00
       12  1    3    3    0    0 -3.06537374154e+01 -1.69551342615e+01 -4.73947656810e+01  5.89354902357e+01  0.00000000000e+00 0.0000e+00 -1.0000e+00
      -11  1    3    3    0    0 +3.44086988385e+01 -2.58044774527e+01 -2.02818849954e+02  2.07329003058e+02  0.00000000000e+00 0.0000e+00 1.0000e+00
       24  2    1    2    0    0 -1.20961133254e+01 -3.95790620812e+01 -5.58200330241e+02  5.65571890870e+02  8.10625496019e+01 0.0000e+00 0.0000e+00
        4  1    6    6  503    0 -1.22604828354e+01 -6.43494149690e+01 -3.70858259642e+02  3.76599276938e+02  0.00000000000e+00 0.0000e+00 -1.0000e+00
       -3  1    6    6    0  503 +1.64369509971e-01 +2.47703528878e+01 -1.87342070599e+02  1.88972613931e+02  0.00000000000e+00 0.0000e+00 1.0000e+00
        1  1    1    2  501    0 +5.30798446992e+01 +1.11395817384e+00 -4.06231044272e+01  6.68501864575e+01  0.00000000000e+00 0.0000e+00 -1.0000e+00
        1  1    1    2  502    0 -4.47386927968e+01 +8.12247156215e+01 -3.77746167819e+01  1.00129549754e+02  0.00000000000e+00 0.0000e+00 -1.0000e+00
#  0.1300000e+05  0.1300000e+05  0.1300000e+05  0.1300000e+05
<mgrwt>
<rscale>  2 0.14570210e+03</rscale>
<asrwt>0</asrwt>
<pdfrwt beam="1">  1        2 0.86157272e-02 0.17073188e+03</pdfrwt>
<pdfrwt beam="2">  1        2 0.14504829e+00 0.90556459e+02</pdfrwt>
<totfact> 0.45201279e+01</totfact>
</mgrwt>
<clustering>
<clus scale="   53.021">  3  5 -1 -1</clus>
<clus scale="   90.556">  2  4  1 -1</clus>
<clus scale="   87.946">  2  6  1 -1</clus>
<clus scale="  170.732">  1  3  2 -1</clus>
</clustering>
<rwgt>
  <wgt id="1">4.25777e-06</wgt>
  <wgt id="2">2.73036e-06</wgt>
  <wgt id="3">1.90424e-06</wgt>
  <wgt id="4">4.40551e-06</wgt>
  <wgt id="5">2.8251e-06</wgt>
  <wgt id="6">1.97031e-06</wgt>
  <wgt id="7">4.44039e-06</wgt>
  <wgt id="8">2.84747e-06</wgt>
  <wgt id="9">1.98591e-06</wgt>
  <wgt id="10">2.8251e-06</wgt>
  <wgt id="11">2.8251e-06</wgt>
  <wgt id="12">2.8251e-06</wgt>
  <wgt id="13">2.8251e-06</wgt>
  <wgt id="14">2.82815e-06</wgt>
  <wgt id="15">2.82256e-06</wgt>
  <wgt id="16">2.82903e-06</wgt>
  <wgt id="17">2.82056e-06</wgt>
  <wgt id="18">2.81636e-06</wgt>
  <wgt id="19">2.83803e-06</wgt>
  <wgt id="20">2.81989e-06</wgt>
  <wgt id="21">2.82859e-06</wgt>
  <wgt id="22">2.82876e-06</wgt>
  <wgt id="23">2.81987e-06</wgt>
  <wgt id="24">2.84531e-06</wgt>
  <wgt id="25">2.81254e-06</wgt>
  <wgt id="26">2.8267e-06</wgt>
  <wgt id="27">2.82292e-06</wgt>
  <wgt id="28">2.84572e-06</wgt>
  <wgt id="29">2.81753e-06</wgt>
  <wgt id="30">2.83645e-06</wgt>
  <wgt id="31">2.8076e-06</wgt>
  <wgt id="32">2.82867e-06</wgt>
  <wgt id="33">2.82168e-06</wgt>
  <wgt id="34">2.79322e-06</wgt>
  <wgt id="35">2.88206e-06</wgt>
  <wgt id="36">2.84212e-06</wgt>
  <wgt id="37">2.81464e-06</wgt>
  <wgt id="38">2.81931e-06</wgt>
  <wgt id="39">2.82776e-06</wgt>
  <wgt id="40">2.82694e-06</wgt>
  <wgt id="41">2.82512e-06</wgt>
  <wgt id="42">2.83668e-06</wgt>
  <wgt id="43">2.80136e-06</wgt>
  <wgt id="44">2.83141e-06</wgt>
  <wgt id="45">2.82268e-06</wgt>
  <wgt id="46">2.82054e-06</wgt>
  <wgt id="47">2.82828e-06</wgt>
  <wgt id="48">2.80962e-06</wgt>
  <wgt id="49">2.83305e-06</wgt>
  <wgt id="50">2.81003e-06</wgt>
  <wgt id="51">2.83023e-06</wgt>
  <wgt id="52">2.82963e-06</wgt>
  <wgt id="53">2.82378e-06</wgt>
</rwgt>
</event>
<event>
 11      0 +2.8251000e-06 2.08683400e+02 7.54677100e-03 1.07507500e-01
        2 -1    0    0  503    0 +0.00000000000e+00 +0.00000000000e+00 +7.99855736070e+02  7.99855736070e+02  0.00000000000e+00 0.0000e+00 -1.0000e+00
        2 -1    0    0  501    0 +0.00000000000e+00 +0.00000000000e+00 -1.36044693040e+02  1.36044693040e+02  0.00000000000e+00 0.0000e+00 -1.0000e+00
       24  2    1    2    0    0 -3.59800082073e+01 -2.16264809112e+01 +4.51633007058e+02  4.60713066894e+02  8.07582272921e+01 0.0000e+00 0.0000e+00
        2  1    3    3  504    0 -3.45786959413e+01 +1.85886894411e+01 +3.35587699281e+02  3.37876204396e+02  0.00000000000e+00 0.0000e+00 -1.0000e+00
       -1  1    3    3    0  504 -1.40131226608e+00 -4.02151703522e+01 +1.16045307777e+02  1.22836862498e+02  0.00000000000e+00 0.0000e+00 1.0000e+00
       24  2    1    2    0    0 -2.09519253787e+01 +2.96605604561e+01 -8.34680998384e+01  1.20735221400e+02  7.93179549175e+01 0.0000e+00 0.0000e+00
       16  1    6    6    0    0 -4.72671975746e+00 +1.73714997683e+01 -9.54389430708e+01  9.71221022133e+01  0.00000000000e+00 0.0000e+00 -1.0000e+00
      -15  1    6    6    0    0 -1.62252056213e+01 +1.22890606878e+01 +1.19708432324e+01  2.36131191869e+01  1.77700000000e+00 0.0000e+00 1.0000e+00
       21  1    1    2  503  502 +4.48767588449e+01 +1.54462065095e+01 +1.59190920165e+02  1.66115194497e+02  0.00000000000e+00 0.0000e+00 -1.0000e+00
        1  1    1    2  501    0 +1.52307495839e+01 +4.96337251467e+01 +8.22519846800e+01  9.72670107931e+01  0.00000000000e+00 0.0000e+00 -1.0000e+00
        1  1    1    2  502    0 -3.17557484267e+00 -7.31140112012e+01 +5.42032309658e+01  9.10699355256e+01  0.00000000000e+00 0.0000e+00 -1.0000e+00
#  0.1300000e+05  0.1300000e+05  0.4746060e+02  0.1300000e+05  0.1300000e+05
<mgrwt>
<rscale>  2 0.19667653e+03</rscale>
<asrwt>  1 0.47460602e+02</asrwt>
<pdfrwt beam="1">  2        2        2 0.12305473e+00 0.94899620e-01 0.47460602e+02 0.20868337e+03</pdfrwt>
<pdfrwt beam="2">  1        2 0.20929953e-01 0.20868337e+03</pdfrwt>
<totfact> 0.26174588e+00</totfact>
</mgrwt>
<clustering>
<clus scale="   47.461">  1  5  2 -1</clus>
<clus scale="   56.279">  3  6 -1 -1</clus>
<clus scale="   71.023">  4  7 -1 -1</clus>
<clus scale="  164.644">  1  3  2 -1</clus>
<clus scale="  208.683">  1  3  2 -1</clus>
</clustering>
<rwgt>
  <wgt id="1">4.2386e-06</wgt>
  <wgt id="2">2.77707e-06</wgt>
  <wgt id="3">1.96427e-06</wgt>
  <wgt id="4">4.31192e-06</wgt>
  <wgt id="5">2.8251e-06</wgt>
  <wgt id="6">1.99824e-06</wgt>
  <wgt id="7">4.30439e-06</wgt>
  <wgt id="8">2.82017e-06</wgt>
  <wgt id="9">1.99476e-06</wgt>
  <wgt id="10">3.71689e-06</wgt>
  <wgt id="11">2.8251e-06</wgt>
  <wgt id="12">2.284e-06</wgt>
  <wgt id="13">2.8251e-06</wgt>
  <wgt id="14">2.82871e-06</wgt>
  <wgt id="15">2.82213e-06</wgt>
  <wgt id="16">2.82863e-06</wgt>
  <wgt id="17">2.82105e-06</wgt>
  <wgt id="18">2.81488e-06</wgt>
  <wgt id="19">2.84027e-06</wgt>
  <wgt id="20">2.81651e-06</wgt>
  <wgt id="21">2.83091e-06</wgt>
  <wgt id="22">2.82995e-06</wgt>
  <wgt id="23">2.81824e-06</wgt>
  <wgt id="24">2.85221e-06</wgt>
  <wgt id="25">2.80835e-06</wgt>
  <wgt id="26">2.82461e-06</wgt>
  <wgt id="27">2.82578e-06</wgt>
  <wgt id="28">2.85274e-06</wgt>
  <wgt id="29">2.81499e-06</wgt>
  <wgt id="30">2.83397e-06</wgt>
  <wgt id="31">2.81313e-06</wgt>
  <wgt id="32">2.82985e-06</wgt>
  <wgt id="33">2.82054e-06</wgt>
  <wgt id="34">2.79638e-06</wgt>
  <wgt id="35">2.87719e-06</wgt>
  <wgt id="36">2.83625e-06</wgt>
  <wgt id="37">2.81885e-06</wgt>
  <wgt id="38">2.8175e-06</wgt>
  <wgt id="39">2.82866e-06</wgt>
  <wgt id="40">2.82551e-06</wgt>
  <wgt id="41">2.82546e-06</wgt>
  <wgt id="42">2.84138e-06</wgt>
  <wgt id="43">2.79272e-06</wgt>
  <wgt id="44">2.83367e-06</wgt>
  <wgt id="45">2.82179e-06</wgt>
  <wgt id="46">2.8225e-06</wgt>
  <wgt id="47">2.82723e-06</wgt>
  <wgt id="48">2.79868e-06</wgt>
  <wgt id="49">2.83808e-06</wgt>
  <wgt id="50">2.81293e-06</wgt>
  <wgt id="51">2.83248e-06</wgt>
  <wgt id="52">2.82685e-06</wgt>
  <wgt id="53">2.82442e-06</wgt>
</rwgt>
</event>
<event>
 10      0 +2.8251000e-06 1.55353800e+02 7.54677100e-03 1.11496400e-01
        2 -1    0    0  502    0 +0.00000000000e+00 +0.00000000000e+00 +2.91816293750e+02  2.91816293750e+02  0.00000000000e+00 0.0000e+00 -1.0000e+00
        2 -1    0    0  501    0 +0.00000000000e+00 +0.00000000000e+00 -2.74333284500e+03  2.74333284500e+03  0.00000000000e+00 0.0000e+00 -1.0000e+00
       24  2    1    2    0    0 +1.54710834449e+01 -6.63725867834e+01 -2.43511286689e+03  2.43745150577e+03  8.21613887950e+01 0.0000e+00 0.0000e+00
       12  1    3    3    0    0 +2.09605121049e+01 -8.20207103936e+01 -2.25159623777e+03  2.25318715555e+03  0.00000000000e+00 0.0000e+00 -1.0000e+00
      -11  1    3    3    0    0 -5.48942865992e+00 +1.56481236102e+01 -1.83516629117e+02  1.84264350220e+02  0.00000000000e+00 0.0000e+00 1.0000e+00
       24  2    1    2    0    0 -1.14899537049e+01 -7.78175272015e+01 +7.05819769367e+01  1.32453500266e+02  7.98406393298e+01 0.0000e+00 0.0000e+00
        2  1    6    6  503    0 +1.55336184087e+01 -8.29301520406e+01 +5.66187345364e+01  1.01608978535e+02  0.00000000000e+00 0.0000e+00 -1.0000e+00
       -1  1    6    6    0  503 -2.70235721136e+01 +5.11262483904e+00 +1.39632424003e+01  3.08445217317e+01  0.00000000000e+00 0.0000e+00 1.0000e+00
        1  1    1    2  501    0 -1.76398541809e+02 -3.31428055700e+01 +4.47980818639e+01  1.84991241014e+02  0.00000000000e+00 0.0000e+00 -1.0000e+00
        1  1    1    2  502    0 +1.72417412069e+02 +1.77332919555e+02 -1.31783743161e+02  2.80252891696e+02  0.00000000000e+00 0.0000e+00 -1.0000e+00
#  0.1300000e+05  0.1300000e+05  0.1300000e+05  0.1300000e+05
<mgrwt>
<rscale>  2 0.15146494e+03</rscale>
<asrwt>0</asrwt>
<pdfrwt beam="1">  1        2 0.44894814e-01 0.11682383e+03</pdfrwt>
<pdfrwt beam="2">  1        2 0.42205121e+00 0.10555826e+03</pdfrwt>
<totfact> 0.71651351e-01</totfact>
</mgrwt>
<clustering>
<clus scale="  105.558">  2  3  1 -1</clus>
<clus scale="  116.824">  1  4  2 -1</clus>
<clus scale="  206.591">  1  5  2 -1</clus>
<clus scale="  206.591">  1  3  2 -1</clus>
</clustering>
<rwgt>
  <wgt id="1">5.4066e-06</wgt>
  <wgt id="2">3.47715e-06</wgt>
  <wgt id="3">2.42961e-06</wgt>
  <wgt id="4">4.39274e-06</wgt>
  <wgt id="5">2.8251e-06</wgt>
  <wgt id="6">1.974e-06</wgt>
  <wgt id="7">3.66787e-06</wgt>
  <wgt id="8">2.35892e-06</wgt>
  <wgt id="9">1.64826e-06</wgt>
  <wgt id="10">2.8251e-06</wgt>
  <wgt id="11">2.8251e-06</wgt>
  <wgt id="12">2.8251e-06</wgt>
  <wgt id="13">2.8251e-06</wgt>
  <wgt id="14">2.82872e-06</wgt>
  <wgt id="15">2.8222e-06</wgt>
  <wgt id="16">2.81438e-06</wgt>
  <wgt id="17">2.83708e-06</wgt>
  <wgt id="18">2.81085e-06</wgt>
  <wgt id="19">2.84624e-06</wgt>
  <wgt id="20">2.81752e-06</wgt>
  <wgt id="21">2.83017e-06</wgt>
  <wgt id="22">2.83331e-06</wgt>
  <wgt id="23">2.81363e-06</wgt>
  <wgt id="24">2.86952e-06</wgt>
  <wgt id="25">2.79784e-06</wgt>
  <wgt id="26">2.82461e-06</wgt>
  <wgt id="27">2.82591e-06</wgt>
  <wgt id="28">2.84745e-06</wgt>
  <wgt id="29">2.81675e-06</wgt>
  <wgt id="30">2.82898e-06</wgt>
  <wgt id="31">2.81998e-06</wgt>
  <wgt id="32">2.82152e-06</wgt>
  <wgt id="33">2.82856e-06</wgt>
  <wgt id="34">2.78772e-06</wgt>
  <wgt id="35">2.89376e-06</wgt>
  <wgt id="36">2.83337e-06</wgt>
  <wgt id="37">2.82211e-06</wgt>
  <wgt id="38">2.8184e-06</wgt>
  <wgt id="39">2.82898e-06</wgt>
  <wgt id="40">2.83794e-06</wgt>
  <wgt id="41">2.81243e-06</wgt>
  <wgt id="42">2.84457e-06</wgt>
  <wgt id="43">2.7902e-06</wgt>
  <wgt id="44">2.83583e-06</wgt>
  <wgt id="45">2.82082e-06</wgt>
  <wgt id="46">2.82369e-06</wgt>
  <wgt id="47">2.82629e-06</wgt>
  <wgt id="48">2.81342e-06</wgt>
  <wgt id="49">2.83508e-06</wgt>
  <wgt id="50">2.81609e-06</wgt>
  <wgt id="51">2.83628e-06</wgt>
  <wgt id="52">2.83165e-06</wgt>
  <wgt id="53">2.82368e-06</wgt>
</rwgt>
</event>
<event>
 12      0 +2.8251000e-06 7.20228500e+02 7.54677100e-03 9.58816200e-02
        2 -1    0    0  503    0 +0.00000000000e+00 +0.00000000000e+00 +2.09360992300e+03  2.09360992300e+03  0.00000000000e+00 0.0000e+00 -1.0000e+00
        2 -1    0    0  502    0 +0.00000000000e+00 +0.00000000000e+00 -3.55288657640e+03  3.55288657640e+03  0.00000000000e+00 0.0000e+00 -1.0000e+00
       24  2    1    2    0    0 -6.21959708899e+01 +4.60741300432e+02 +7.16147233356e+02  8.56612813198e+02  6.90490200735e+01 0.0000e+00 0.0000e+00
        4  1    3    3  505    0 +9.98969435554e+00 +7.14921331952e+01 +8.42544007108e+01  1.10949191711e+02  0.00000000000e+00 0.0000e+00 -1.0000e+00
       -3  1    3    3    0  505 -7.21856652455e+01 +3.89249167237e+02 +6.31892832645e+02  7.45663621487e+02  0.00000000000e+00 0.0000e+00 1.0000e+00
       24  2    1    2    0    0 -2.76784985598e+01 +1.77277980662e+01 -7.59961590242e+02  7.65056918214e+02  8.17930031102e+01 0.0000e+00 0.0000e+00
        4  1    6    6  506    0 -3.85309163232e+01 +3.10700840136e+01 -7.18047522380e+02  7.19751502971e+02  0.00000000000e+00 0.0000e+00 -1.0000e+00
       -3  1    6    6    0  506 +1.08524177634e+01 -1.33422859474e+01 -4.19140678615e+01  4.53054152427e+01  0.00000000000e+00 0.0000e+00 1.0000e+00
       21  1    1    2  503  504 +6.79633750163e+01 +1.03236271307e+01 -6.04482783466e+00  6.90082427272e+01  0.00000000000e+00 0.0000e+00 -1.0000e+00
       21  1    1    2  504  501 -6.43086233486e+01 -9.30278041282e+01 +2.30942750160e+02  2.57146505380e+02  0.00000000000e+00 0.0000e+00 1.0000e+00
        1  1    1    2  501    0 +8.50681763291e+01 -1.22314106153e+03 -2.32255197868e+03  2.62632030504e+03  0.00000000000e+00 0.0000e+00 -1.0000e+00
        1  1    1    2  502    0 +1.15154145290e+00 +8.27376140026e+02 +6.82191759836e+02  1.07235171484e+03  0.00000000000e+00 0.0000e+00 -1.0000e+00
#  0.1300000e+05  0.1300000e+05  0.6874298e+02  0.1076679e+03  0.1300000e+05  0.1300000e+05
<mgrwt>
<rscale>  2 0.47807484e+03</rscale>
<asrwt>  2 0.68742982e+02 0.10766795e+03</asrwt>
<pdfrwt beam="1">  3        2        2        2 0.32209383e+00 0.31384845e+00 0.27531111e+00 0.68742982e+02 0.10766795e+03 0.72022846e+03</pdfrwt>
<pdfrwt beam="2">  1        2 0.54659793e+00 0.87505555e+02</pdfrwt>
<totfact> 0.15842992e-04</totfact>
</mgrwt>
<clustering>
<clus scale="   68.743">  1  5  2 -1</clus>
<clus scale="   87.506">  2  4  1 -1</clus>
<clus scale="  107.668">  1  6  2 -1</clus>
<clus scale="  450.747">  1  3  2 -1</clus>
<clus scale=" 1150.820">  1  8  2 -1</clus>
<clus scale=" 1150.820">  1  3  2 -1</clus>
</clustering>
<rwgt>
  <wgt id="1">6.20447e-06</wgt>
  <wgt id="2">4.28363e-06</wgt>
  <wgt id="3">3.1402e-06</wgt>
  <wgt id="4">4.09191e-06</wgt>
  <wgt id="5">2.8251e-06</wgt>
  <wgt id="6">2.07099e-06</wgt>
  <wgt id="7">2.89789e-06</wgt>
  <wgt id="8">2.00073e-06</wgt>
  <wgt id="9">1.46667e-06</wgt>
  <wgt id="10">4.60404e-06</wgt>
  <wgt id="11">2.8251e-06</wgt>
  <wgt id="12">1.91526e-06</wgt>
  <wgt id="13">2.8251e-06</wgt>
  <wgt id="14">2.82872e-06</wgt>
  <wgt id="15">2.822e-06</wgt>
  <wgt id="16">2.79428e-06</wgt>
  <wgt id="17">2.85973e-06</wgt>
  <wgt id="18">2.80666e-06</wgt>
  <wgt id="19">2.85256e-06</wgt>
  <wgt id="20">2.81966e-06</wgt>
  <wgt id="21">2.82865e-06</wgt>
  <wgt id="22">2.83667e-06</wgt>
  <wgt id="23">2.80848e-06</wgt>
  <wgt id="24">2.8875e-06</wgt>
  <wgt id="25">2.78693e-06</wgt>
  <wgt id="26">2.82549e-06</wgt>
  <wgt id="27">2.82445e-06</wgt>
  <wgt id="28">2.83546e-06</wgt>
  <wgt id="29">2.82064e-06</wgt>
  <wgt id="30">2.82514e-06</wgt>
  <wgt id="31">2.8249e-06</wgt>
  <wgt id="32">2.80854e-06</wgt>
  <wgt id="33">2.84089e-06</wgt>
  <wgt id="34">2.77967e-06</wgt>
  <wgt id="35">2.90896e-06</wgt>
  <wgt id="36">2.85051e-06</wgt>
  <wgt id="37">2.81147e-06</wgt>
  <wgt id="38">2.81575e-06</wgt>
  <wgt id="39">2.83048e-06</wgt>
  <wgt id="40">2.85382e-06</wgt>
  <wgt id="41">2.79624e-06</wgt>
  <wgt id="42">2.84602e-06</wgt>
  <wgt id="43">2.79293e-06</wgt>
  <wgt id="44">2.83465e-06</wgt>
  <wgt id="45">2.82136e-06</wgt>
  <wgt id="46">2.82394e-06</wgt>
  <wgt id="47">2.82564e-06</wgt>
  <wgt id="48">2.83946e-06</wgt>
  <wgt id="49">2.82893e-06</wgt>
  <wgt id="50">2.81561e-06</wgt>
  <wgt id="51">2.84108e-06</wgt>
  <wgt id="52">2.84068e-06</wgt>
  <wgt id="53">2.82178e-06</wgt>
</rwgt>
</event>
<event>
 10      0 +2.8251000e-06 1.59341300e+02 7.54677100e-03 1.12548400e-01
        4 -1    0    0  501    0 +0.00000000000e+00 +0.00000000000e+00 +3.83991961510e+02  3.83991961510e+02  0.00000000000e+00 0.0000e+00 -1.0000e+00
        4 -1    0    0  502    0 +0.00000000000e+00 +0.00000000000e+00 -6.87299626710e+02  6.87299626710e+02  0.00000000000e+00 0.0000e+00 -1.0000e+00
       24  2    1    2    0    0 +5.86580199444e+01 -8.20172777849e+00 +5.11892389984e+01  1.12762971278e+02  8.11610612290e+01 0.0000e+00 0.0000e+00
        2  1    3    3  503    0 +5.94183497308e+01 -3.79218639221e+01 +3.22714971200e+01  7.75245611043e+01  0.00000000000e+00 0.0000e+00 -1.0000e+00
       -1  1    3    3    0  503 -7.60329786374e-01 +2.97201361436e+01 +1.89177418783e+01  3.52384101735e+01  0.00000000000e+00 0.0000e+00 1.0000e+00
       24  2    1    2    0    0 +1.14785299517e+02 +5.62792864307e+01 -4.51556757746e+02  4.76249336076e+02  8.10364213236e+01 0.0000e+00 0.0000e+00
        2  1    6    6  504    0 +7.23562848036e+01 +7.54776283457e+01 -3.24323068549e+02  3.40760556879e+02  0.00000000000e+00 0.0000e+00 -1.0000e+00
       -1  1    6    6    0  504 +4.24290147138e+01 -1.91983419149e+01 -1.27233689196e+02  1.35488779197e+02  0.00000000000e+00 0.0000e+00 1.0000e+00
        3  1    1    2  501    0 -1.16303050187e+02 -1.65964965535e+02 -1.15001619788e+02  2.33015325294e+02  0.00000000000e+00 0.0000e+00 -1.0000e+00
        3  1    1    2  502    0 -5.71402692744e+01 +1.17887406882e+02 +2.12061473336e+02  2.49263955572e+02  0.00000000000e+00 0.0000e+00 -1.0000e+00
#  0.1300000e+05  0.1300000e+05  0.1300000e+05  0.1300000e+05
<mgrwt>
<rscale>  2 0.14182178e+03</rscale>
<asrwt>0</asrwt>
<pdfrwt beam="1">  1        4 0.59075686e-01 0.99996928e+02</pdfrwt>
<pdfrwt beam="2">  1        4 0.10573840e+00 0.15934130e+03</pdfrwt>
<totfact> 0.46354358e-02</totfact>
</mgrwt>
<clustering>
<clus scale="   99.997">  1  3  2 -1</clus>
<clus scale="  112.377">  1  6  2 -1</clus>
<clus scale="  137.559">  1  5  2 -1</clus>
<clus scale="  159.341">  1  3  2 -1</clus>
</clustering>
<rwgt>
  <wgt id="1">3.82582e-06</wgt>
  <wgt id="2">2.44839e-06</wgt>
  <wgt id="3">1.70534e-06</wgt>
  <wgt id="4">4.41447e-06</wgt>
  <wgt id="5">2.8251e-06</wgt>
  <wgt id="6">1.96772e-06</wgt>
  <wgt id="7">4.61365e-06</wgt>
  <wgt id="8">2.95257e-06</wgt>
  <wgt id="9">2.05651e-06</wgt>
  <wgt id="10">2.8251e-06</wgt>
  <wgt id="11">2.8251e-06</wgt>
  <wgt id="12">2.8251e-06</wgt>
  <wgt id="13">2.8251e-06</wgt>
  <wgt id="14">2.84024e-06</wgt>
  <wgt id="15">2.81259e-06</wgt>
  <wgt id="16">2.82687e-06</wgt>
  <wgt id="17">2.82308e-06</wgt>
  <wgt id="18">2.82804e-06</wgt>
  <wgt id="19">2.82071e-06</wgt>
  <wgt id="20">2.82932e-06</wgt>
  <wgt id="21">2.82221e-06</wgt>
  <wgt id="22">2.81712e-06</wgt>
  <wgt id="23">2.83642e-06</wgt>
  <wgt id="24">2.77885e-06</wgt>
  <wgt id="25">2.85387e-06</wgt>
  <wgt id="26">2.83427e-06</wgt>
  <wgt id="27">2.81259e-06</wgt>
  <wgt id="28">2.8139e-06</wgt>
  <wgt id="29">2.82914e-06</wgt>
  <wgt id="30">2.76775e-06</wgt>
  <wgt id="31">2.89632e-06</wgt>
  <wgt id="32">2.82956e-06</wgt>
  <wgt id="33">2.82092e-06</wgt>
  <wgt id="34">2.91407e-06</wgt>
  <wgt id="35">2.67433e-06</wgt>
  <wgt id="36">2.76236e-06</wgt>
  <wgt id="37">2.86522e-06</wgt>
  <wgt id="38">2.7887e-06</wgt>
  <wgt id="39">2.84249e-06</wgt>
  <wgt id="40">2.80718e-06</wgt>
  <wgt id="41">2.84791e-06</wgt>
  <wgt id="42">2.78793e-06</wgt>
  <wgt id="43">2.89184e-06</wgt>
  <wgt id="44">2.81058e-06</wgt>
  <wgt id="45">2.83094e-06</wgt>
  <wgt id="46">2.8368e-06</wgt>
  <wgt id="47">2.81811e-06</wgt>
  <wgt id="48">2.8454e-06</wgt>
  <wgt id="49">2.81389e-06</wgt>
  <wgt id="50">2.88325e-06</wgt>
  <wgt id="51">2.79187e-06</wgt>
  <wgt id="52">2.83256e-06</wgt>
  <wgt id="53">2.82321e-06</wgt>
</rwgt>
</event>
<event>
 10      0 +2.8251000e-06 4.06446100e+02 7.54677100e-03 1.01473300e-01
        2 -1    0    0  502    0 +0.00000000000e+00 +0.00000000000e+00 +1.04279331590e+03  1.04279331590e+03  0.00000000000e+00 0.0000e+00 -1.0000e+00
        2 -1    0    0  501    0 +0.00000000000e+00 +0.00000000000e+00 -1.73291311380e+03  1.73291311380e+03  0.00000000000e+00 0.0000e+00 -1.0000e+00
       24  2    1    2    0    0 +3.93402396250e+02 +2.56294482632e+00 +8.40707554390e+02  9.32049333625e+02  8.45857803747e+01 0.0000e+00 0.0000e+00
       16  1    3    3    0    0 +3.47819460416e+02 +1.23842031284e+01 +7.89398608957e+02  8.62717746052e+02  0.00000000000e+00 0.0000e+00 -1.0000e+00
      -15  1    3    3    0    0 +4.55829358342e+01 -9.82125830212e+00 +5.13089454335e+01  6.93315875730e+01  1.77700000000e+00 0.0000e+00 1.0000e+00
       24  2    1    2    0    0 +7.03931726918e+01 -6.86606282783e+01 -8.36226096382e+02  8.45891749052e+02  8.11744184257e+01 0.0000e+00 0.0000e+00
        4  1    6    6  503    0 +8.83140332961e+01 -5.90676548077e+01 -6.61463573747e+02  6.69942098778e+02  0.00000000000e+00 0.0000e+00 -1.0000e+00
       -3  1    6    6    0  503 -1.79208606043e+01 -9.59297347059e+00 -1.74762522635e+02  1.75949650273e+02  0.00000000000e+00 0.0000e+00 1.0000e+00
        1  1    1    2  501    0 -4.82117186518e+02 -6.85055107444e+01 -7.10110711948e+02  8.61038448480e+02  0.00000000000e+00 0.0000e+00 -1.0000e+00
        1  1    1    2  502    0 +1.83216175762e+01 +1.34603194196e+02 +1.55094560393e+01  1.36726898543e+02  0.00000000000e+00 0.0000e+00 -1.0000e+00
#  0.1300000e+05  0.1300000e+05  0.1300000e+05  0.1300000e+05
<mgrwt>
<rscale>  2 0.30391556e+03</rscale>
<asrwt>0</asrwt>
<pdfrwt beam="1">  1        2 0.16042974e+00 0.40644606e+03</pdfrwt>
<pdfrwt beam="2">  1        2 0.26660202e+00 0.12705829e+03</pdfrwt>
<totfact> 0.44414979e-01</totfact>
</mgrwt>
<clustering>
<clus scale="  127.058">  2  4  1 -1</clus>
<clus scale="  132.030">  2  6  1 -1</clus>
<clus scale="  398.411">  2  5  1 -1</clus>
<clus scale="  406.446">  1  3  2 -1</clus>
</clustering>
<rwgt>
  <wgt id="1">5.17157e-06</wgt>
  <wgt id="2">3.48303e-06</wgt>
  <wgt id="3">2.50963e-06</wgt>
  <wgt id="4">4.19469e-06</wgt>
  <wgt id="5">2.8251e-06</wgt>
  <wgt id="6">2.03557e-06</wgt>
  <wgt id="7">3.50223e-06</wgt>
  <wgt id="8">2.35873e-06</wgt>
  <wgt id="9">1.69954e-06</wgt>
  <wgt id="10">2.8251e-06</wgt>
  <wgt id="11">2.8251e-06</wgt>
  <wgt id="12">2.8251e-06</wgt>
  <wgt id="13">2.8251e-06</wgt>
  <wgt id="14">2.82811e-06</wgt>
  <wgt id="15">2.82263e-06</wgt>
  <wgt id="16">2.80673e-06</wgt>
  <wgt id="17">2.84562e-06</wgt>
  <wgt id="18">2.81062e-06</wgt>
  <wgt id="19">2.8466e-06</wgt>
  <wgt id="20">2.81765e-06</wgt>
  <wgt id="21">2.83012e-06</wgt>
  <wgt id="22">2.83384e-06</wgt>
  <wgt id="23">2.81274e-06</wgt>
  <wgt id="24">2.87254e-06</wgt>
  <wgt id="25">2.79594e-06</wgt>
  <wgt id="26">2.82575e-06</wgt>
  <wgt id="27">2.82426e-06</wgt>
  <wgt id="28">2.87748e-06</wgt>
  <wgt id="29">2.80618e-06</wgt>
  <wgt id="30">2.83124e-06</wgt>
  <wgt id="31">2.81743e-06</wgt>
  <wgt id="32">2.82576e-06</wgt>
  <wgt id="33">2.82442e-06</wgt>
  <wgt id="34">2.78171e-06</wgt>
  <wgt id="35">2.90558e-06</wgt>
  <wgt id="36">2.84652e-06</wgt>
  <wgt id="37">2.81328e-06</wgt>
  <wgt id="38">2.81401e-06</wgt>
  <wgt id="39">2.83108e-06</wgt>
  <wgt id="40">2.82981e-06</wgt>
  <wgt id="41">2.82059e-06</wgt>
  <wgt id="42">2.85013e-06</wgt>
  <wgt id="43">2.78565e-06</wgt>
  <wgt id="44">2.83109e-06</wgt>
  <wgt id="45">2.82307e-06</wgt>
  <wgt id="46">2.82286e-06</wgt>
  <wgt id="47">2.82652e-06</wgt>
  <wgt id="48">2.82811e-06</wgt>
  <wgt id="49">2.82902e-06</wgt>
  <wgt id="50">2.81759e-06</wgt>
  <wgt id="51">2.83718e-06</wgt>
  <wgt id="52">2.84284e-06</wgt>
  <wgt id="53">2.82071e-06</wgt>
</rwgt>
</event>
<event>
 12      0 +2.8251000e-06 2.23597300e+02 7.54677100e-03 1.08809600e-01
        2 -1    0    0  503    0 +0.00000000000e+00 +0.00000000000e+00 +6.88404855850e+02  6.88404855850e+02  0.00000000000e+00 0.0000e+00 -1.0000e+00
        2 -1    0    0  504    0 +0.00000000000e+00 +0.00000000000e+00 -2.42589637650e+03  2.42589637650e+03  0.00000000000e+00 0.0000e+00 -1.0000e+00
       24  2    1    2    0    0 +4.56164331281e+01 +4.74196411178e+00 -1.49090198857e+02  1.76992340367e+02  8.36364511358e+01 0.0000e+00 0.0000e+00
        4  1    3    3  505    0 -2.28454797016e+01 +1.30549798864e+01 -3.74795035169e+01  4.57936854435e+01  0.00000000000e+00 0.0000e+00 -1.0000e+00
       -3  1    3    3    0  505 +6.84619128297e+01 -8.31301577460e+00 -1.11610695340e+02  1.31198654924e+02  0.00000000000e+00 0.0000e+00 1.0000e+00
       24  2    1    2    0    0 -1.51423504786e+02 -8.68355742872e+00 -1.72321808828e+03  1.73172344467e+03  7.98813311470e+01 0.0000e+00 0.0000e+00
        4  1    6    6  506    0 -1.26906217245e+02 -1.46606632304e+01 -1.63453815277e+03  1.63952282566e+03  0.00000000000e+00 0.0000e+00 -1.0000e+00
       -3  1    6    6    0  506 -2.45172875414e+01 +5.97710580171e+00 -8.86799355136e+01  9.22006190047e+01  0.00000000000e+00 0.0000e+00 1.0000e+00
       21  1    1    2  503  501 -1.05481238306e+02 +4.60250774011e+01 +3.08188986388e+02  3.28975760072e+02  0.00000000000e+00 0.0000e+00 -1.0000e+00
       21  1    1    2  504  502 -8.65889322882e+01 -6.55110544405e+01 -8.68725650708e+01  1.39054608017e+02  0.00000000000e+00 0.0000e+00 1.0000e+00
        1  1    1    2  501    0 +7.07823701142e+01 -2.17050593900e+02 -2.74554499121e+02  3.57073209887e+02  0.00000000000e+00 0.0000e+00 -1.0000e+00
        1  1    1    2  502    0 +2.27094872138e+02 +2.40478164257e+02 +1.88054844290e+02  3.80481869340e+02  0.00000000000e+00 0.0000e+00 -1.0000e+00
#  0.1300000e+05  0.1300000e+05  0.1151516e+03  0.1067022e+03  0.1300000e+05  0.1300000e+05
<mgrwt>
<rscale>  3 0.18022197e+03</rscale>
<asrwt>  1 0.11515160e+03</asrwt>
<pdfrwt beam="1">  2        2        2 0.10590844e+00 0.53316497e-01 0.11515160e+03 0.22359730e+03</pdfrwt>
<pdfrwt beam="2">  1        2 0.37321483e+00 0.92191542e+02</pdfrwt>
<totfact> 0.54223936e-03</totfact>
</mgrwt>
<clustering>
<clus scale="   92.192">  2  3  1 -1</clus>
<clus scale="  106.702">  2  6  1 -1</clus>
<clus scale="  115.152">  1  5  2 -1</clus>
<clus scale="  218.437">  1  4  2 -1</clus>
<clus scale="  228.879">  2  7  1 -1</clus>
<clus scale="  228.879">  1  3  2 -1</clus>
</clustering>
<rwgt>
  <wgt id="1">6.73772e-06</wgt>
  <wgt id="2">3.54142e-06</wgt>
  <wgt id="3">2.09411e-06</wgt>
  <wgt id="4">5.37489e-06</wgt>
  <wgt id="5">2.8251e-06</wgt>
  <wgt id="6">1.67053e-06</wgt>
  <wgt id="7">4.51742e-06</wgt>
  <wgt id="8">2.37441e-06</wgt>
  <wgt id="9">1.40403e-06</wgt>
  <wgt id="10">3.55976e-06</wgt>
  <wgt id="11">2.8251e-06</wgt>
  <wgt id="12">2.34508e-06</wgt>
  <wgt id="13">2.8251e-06</wgt>
  <wgt id="14">2.82831e-06</wgt>
  <wgt id="15">2.82261e-06</wgt>
  <wgt id="16">2.80814e-06</wgt>
  <wgt id="17">2.84411e-06</wgt>
  <wgt id="18">2.8102e-06</wgt>
  <wgt id="19">2.84734e-06</wgt>
  <wgt id="20">2.81569e-06</wgt>
  <wgt id="21">2.83149e-06</wgt>
  <wgt id="22">2.83381e-06</wgt>
  <wgt id="23">2.81277e-06</wgt>
  <wgt id="24">2.87277e-06</wgt>
  <wgt id="25">2.79583e-06</wgt>
  <wgt id="26">2.82495e-06</wgt>
  <wgt id="27">2.82531e-06</wgt>
  <wgt id="28">2.86558e-06</wgt>
  <wgt id="29">2.81033e-06</wgt>
  <wgt id="30">2.82938e-06</wgt>
  <wgt id="31">2.81986e-06</wgt>
  <wgt id="32">2.82297e-06</wgt>
  <wgt id="33">2.82722e-06</wgt>
  <wgt id="34">2.78336e-06</wgt>
  <wgt id="35">2.9025e-06</wgt>
  <wgt id="36">2.84539e-06</wgt>
  <wgt id="37">2.81547e-06</wgt>
  <wgt id="38">2.81518e-06</wgt>
  <wgt id="39">2.83065e-06</wgt>
  <wgt id="40">2.83455e-06</wgt>
  <wgt id="41">2.81585e-06</wgt>
  <wgt id="42">2.8482e-06</wgt>
  <wgt id="43">2.78772e-06</wgt>
  <wgt id="44">2.83484e-06</wgt>
  <wgt id="45">2.82147e-06</wgt>
  <wgt id="46">2.8247e-06</wgt>
  <wgt id="47">2.82556e-06</wgt>
  <wgt id="48">2.82443e-06</wgt>
  <wgt id="49">2.83052e-06</wgt>
  <wgt id="50">2.81706e-06</wgt>
  <wgt id="51">2.8381e-06</wgt>
  <wgt id="52">2.83904e-06</wgt>
  <wgt id="53">2.82184e-06</wgt>
</rwgt>
</event>
<event>
 12      0 +2.8251000e-06 8.03785100e+02 7.54677100e-03 9.43837800e-02
        2 -1    0    0  504    0 +0.00000000000e+00 +0.00000000000e+00 +7.50193420760e+02  7.50193420760e+02  0.00000000000e+00 0.0000e+00 -1.0000e+00
        2 -1    0    0  502    0 +0.00000000000e+00 +0.00000000000e+00 -3.51814754610e+03  3.51814754610e+03  0.00000000000e+00 0.0000e+00 -1.0000e+00
       24  2    1    2    0    0 -2.05083529045e+01 +1.57351696783e+02 +4.71460676037e+01  1.85322859859e+02  8.33166350535e+01 0.0000e+00 0.0000e+00
       12  1    3    3    0    0 -3.59420177021e+01 +1.50850897992e+02 +2.42536686428e+01  1.56958792376e+02  0.00000000000e+00 0.0000e+00 -1.0000e+00
      -11  1    3    3    0    0 +1.54336647976e+01 +6.50079879056e+00 +2.28923989609e+01  2.83640674831e+01  0.00000000000e+00 0.0000e+00 1.0000e+00
       24  2    1    2    0    0 +2.83892167698e+01 -1.42471209731e+02 -1.94284517625e+03  1.94980991612e+03  7.75070119203e+01 0.0000e+00 0.0000e+00
       14  1    6    6    0    0 +1.54378097887e+01 -1.38964414301e+02 -1.43684610815e+03  1.44363297722e+03  0.00000000000e+00 0.0000e+00 -1.0000e+00
      -13  1    6    6    0    0 +1.29514069811e+01 -3.50679543013e+00 -5.05999068106e+02  5.06176938907e+02  0.00000000000e+00 0.0000e+00 1.0000e+00
       21  1    1    2  503  501 -1.78608382514e+02 +4.45877562336e+01 +4.64368420434e+02  4.99526828315e+02  0.00000000000e+00 0.0000e+00 -1.0000e+00
       21  1    1    2  504  503 -3.84566279808e+01 -4.33573878198e+01 +5.25722657938e+01  7.82471625358e+01  0.00000000000e+00 0.0000e+00 -1.0000e+00
        1  1    1    2  501    0 +1.97443583014e+02 +4.10128263620e+01 -4.07577805713e+01  2.05735794350e+02  0.00000000000e+00 0.0000e+00 -1.0000e+00
        1  1    1    2  502    0 +1.17405636151e+01 -5.71236818276e+01 -1.34843792235e+03  1.34969840568e+03  0.00000000000e+00 0.0000e+00 -1.0000e+00
#  0.1300000e+05  0.1300000e+05  0.2008112e+03  0.5795494e+02  0.1300000e+05  0.1300000e+05
<mgrwt>
<rscale>  2 0.54483930e+03</rscale>
<asrwt>  2 0.57954942e+02 0.20081119e+03</asrwt>
<pdfrwt beam="1">  3        2        2        2 0.11541437e+00 0.10493020e+00 0.20138764e-01 0.57954942e+02 0.20081119e+03 0.80378509e+03</pdfrwt>
<pdfrwt beam="2">  1        2 0.54125347e+00 0.16968907e+03</pdfrwt>
<totfact> 0.86827448e-04</totfact>
</mgrwt>
<clustering>
<clus scale="   54.347">  3  8 -1 -1</clus>
<clus scale="   57.955">  1  6  2 -1</clus>
<clus scale="  169.689">  2  4  1 -1</clus>
<clus scale="  197.849">  2  7  1 -1</clus>
<clus scale="  200.811">  1  5  2 -1</clus>
<clus scale="  803.785">  1  3  2 -1</clus>
</clustering>
<rwgt>
  <wgt id="1">5.13304e-06</wgt>
  <wgt id="2">3.5681e-06</wgt>
  <wgt id="3">2.62781e-06</wgt>
  <wgt id="4">4.06417e-06</wgt>
  <wgt id="5">2.8251e-06</wgt>
  <wgt id="6">2.08061e-06</wgt>
  <wgt id="7">3.32912e-06</wgt>
  <wgt id="8">2.31415e-06</wgt>
  <wgt id="9">1.70431e-06</wgt>
  <wgt id="10">4.53781e-06</wgt>
  <wgt id="11">2.8251e-06</wgt>
  <wgt id="12">1.93458e-06</wgt>
  <wgt id="13">2.8251e-06</wgt>
  <wgt id="14">2.82857e-06</wgt>
  <wgt id="15">2.82213e-06</wgt>
  <wgt id="16">2.80339e-06</wgt>
  <wgt id="17">2.84933e-06</wgt>
  <wgt id="18">2.80843e-06</wgt>
  <wgt id="19">2.84979e-06</wgt>
  <wgt id="20">2.81388e-06</wgt>
  <wgt id="21">2.83258e-06</wgt>
  <wgt id="22">2.83477e-06</wgt>
  <wgt id="23">2.81132e-06</wgt>
  <wgt id="24">2.87825e-06</wgt>
  <wgt id="25">2.79252e-06</wgt>
  <wgt id="26">2.82407e-06</wgt>
  <wgt id="27">2.82639e-06</wgt>
  <wgt id="28">2.84062e-06</wgt>
  <wgt id="29">2.81899e-06</wgt>
  <wgt id="30">2.82441e-06</wgt>
  <wgt id="31">2.82584e-06</wgt>
  <wgt id="32">2.81389e-06</wgt>
  <wgt id="33">2.83576e-06</wgt>
  <wgt id="34">2.78733e-06</wgt>
  <wgt id="35">2.89458e-06</wgt>
  <wgt id="36">2.8585e-06</wgt>
  <wgt id="37">2.80644e-06</wgt>
  <wgt id="38">2.8125e-06</wgt>
  <wgt id="39">2.83141e-06</wgt>
  <wgt id="40">2.84584e-06</wgt>
  <wgt id="41">2.80425e-06</wgt>
  <wgt id="42">2.84557e-06</wgt>
  <wgt id="43">2.79201e-06</wgt>
  <wgt id="44">2.83647e-06</wgt>
  <wgt id="45">2.82059e-06</wgt>
  <wgt id="46">2.82653e-06</wgt>
  <wgt id="47">2.82428e-06</wgt>
  <wgt id="48">2.82176e-06</wgt>
  <wgt id="49">2.83414e-06</wgt>
  <wgt id="50">2.81387e-06</wgt>
  <wgt id="51">2.8429e-06</wgt>
  <wgt id="52">2.83477e-06</wgt>
  <wgt id="53">2.82298e-06</wgt>
</rwgt>
</event>
<event>
 10      0 +2.8251000e-06 1.37450500e+02 7.54677100e-03 1.13065000e-01
       -3 -1    0    0    0  502 +0.00000000000e+00 +0.00000000000e+00 +1.14528463540e+02  1.14528463540e+02  0.00000000000e+00 0.0000e+00 1.0000e+00
       -1 -1    0    0    0  501 +0.00000000000e+00 +0.00000000000e+00 -1.19348524290e+03  1.19348524290e+03  0.00000000000e+00 0.0000e+00 1.0000e+00
       24  2    1    2    0    0 -1.18721642291e+01 -1.83173009060e+01 +1.60880711990e+01  8.49795432179e+01  8.05371028449e+01 0.0000e+00 0.0000e+00
        4  1    3    3  503    0 -5.75503033027e+00 +2.82648261219e+01 -1.08555362945e+01  3.08198546078e+01  0.00000000000e+00 0.0000e+00 -1.0000e+00
       -3  1    3    3    0  503 -6.11713389886e+00 -4.65821270279e+01 +2.69436074935e+01  5.41596886101e+01  0.00000000000e+00 0.0000e+00 1.0000e+00
       24  2    1    2    0    0 -1.26910893182e+01 +1.63377985114e+01 -1.37488392856e+02  1.60997654776e+02  8.11738828994e+01 0.0000e+00 0.0000e+00
       14  1    6    6    0    0 -4.71119544169e+01 +1.14859124086e+01 -8.87401928688e+01  1.01125092154e+02  0.00000000000e+00 0.0000e+00 -1.0000e+00
      -13  1    6    6    0    0 +3.44208650986e+01 +4.85188610289e+00 -4.87481999873e+01  5.98725626218e+01  0.00000000000e+00 0.0000e+00 1.0000e+00
       -2  1    1    2    0  502 -1.00415780169e+01 +2.22866039489e+02 -6.02199727827e+02  6.42195154950e+02  0.00000000000e+00 0.0000e+00 1.0000e+00
       -4  1    1    2    0  501 +3.46048315643e+01 -2.20886537094e+02 -3.55356729876e+02  4.19841353496e+02  0.00000000000e+00 0.0000e+00 1.0000e+00
#  0.1300000e+05  0.1300000e+05  0.1300000e+05  0.1300000e+05
<mgrwt>
<rscale>  2 0.13738236e+03</rscale>
<asrwt>0</asrwt>
<pdfrwt beam="1">  1       -1 0.18361311e+00 0.83389702e+02</pdfrwt>
<pdfrwt beam="2">  1       -3 0.17619764e-01 0.83555372e+02</pdfrwt>
<totfact> 0.57956608e-01</totfact>
</mgrwt>
<clustering>
<clus scale="   83.555">  1  3  2 -1</clus>
<clus scale="   83.390">  2  4  1 -1</clus>
<clus scale="  226.109">  1  6  2 -1</clus>
<clus scale="  226.109">  2  3  1 -1</clus>
</clustering>
<rwgt>
  <wgt id="1">4.64497e-06</wgt>
  <wgt id="2">2.96549e-06</wgt>
  <wgt id="3">2.06227e-06</wgt>
  <wgt id="4">4.42507e-06</wgt>
  <wgt id="5">2.8251e-06</wgt>
  <wgt id="6">1.96464e-06</wgt>
  <wgt id="7">4.10895e-06</wgt>
  <wgt id="8">2.62328e-06</wgt>
  <wgt id="9">1.82428e-06</wgt>
  <wgt id="10">2.8251e-06</wgt>
  <wgt id="11">2.8251e-06</wgt>
  <wgt id="12">2.8251e-06</wgt>
  <wgt id="13">2.8251e-06</wgt>
  <wgt id="14">2.83341e-06</wgt>
  <wgt id="15">2.81863e-06</wgt>
  <wgt id="16">2.83129e-06</wgt>
  <wgt id="17">2.81843e-06</wgt>
  <wgt id="18">2.83547e-06</wgt>
  <wgt id="19">2.81039e-06</wgt>
  <wgt id="20">2.841e-06</wgt>
  <wgt id="21">2.81461e-06</wgt>
  <wgt id="22">2.84326e-06</wgt>
  <wgt id="23">2.79961e-06</wgt>
  <wgt id="24">2.87847e-06</wgt>
  <wgt id="25">2.79288e-06</wgt>
  <wgt id="26">2.82803e-06</wgt>
  <wgt id="27">2.82196e-06</wgt>
  <wgt id="28">2.82951e-06</wgt>
  <wgt id="29">2.82405e-06</wgt>
  <wgt id="30">2.82283e-06</wgt>
  <wgt id="31">2.82565e-06</wgt>
  <wgt id="32">2.83023e-06</wgt>
  <wgt id="33">2.82051e-06</wgt>
  <wgt id="34">2.82948e-06</wgt>
  <wgt id="35">2.81803e-06</wgt>
  <wgt id="36">2.79761e-06</wgt>
  <wgt id="37">2.83968e-06</wgt>
  <wgt id="38">2.96681e-06</wgt>
  <wgt id="39">2.7612e-06</wgt>
  <wgt id="40">2.8241e-06</wgt>
  <wgt id="41">2.82924e-06</wgt>
  <wgt id="42">2.81022e-06</wgt>
  <wgt id="43">2.83421e-06</wgt>
  <wgt id="44">2.87916e-06</wgt>
  <wgt id="45">2.80139e-06</wgt>
  <wgt id="46">2.92069e-06</wgt>
  <wgt id="47">2.76194e-06</wgt>
  <wgt id="48">2.83959e-06</wgt>
  <wgt id="49">2.8131e-06</wgt>
  <wgt id="50">2.81223e-06</wgt>
  <wgt id="51">2.83108e-06</wgt>
  <wgt id="52">2.71257e-06</wgt>
  <wgt id="53">2.85609e-06</wgt>
</rwgt>
</event>
<event>
 10      0 +2.8251000e-06 1.31767500e+02 7.54677100e-03 1.13940400e-01
        2 -1    0    0  501    0 +0.00000000000e+00 +0.00000000000e+00 +2.63780660750e+02  2.63780660750e+02  0.00000000000e+00 0.0000e+00 -1.0000e+00
        2 -1    0    0  502    0 +0.00000000000e+00 +0.00000000000e+00 -7.15563615330e+02  7.15563615330e+02  0.00000000000e+00 0.0000e+00 -1.0000e+00
       24  2    1    2    0    0 +1.38183388376e+01 -2.83677858986e+00 +5.34330548926e+01  1.00458824006e+02  8.38921341045e+01 0.0000e+00 0.0000e+00
       16  1    3    3    0    0 +4.10572054212e+01 -2.60480377633e+01 +2.45442640945e+01  5.44666438130e+01  0.00000000000e+00 0.0000e+00 -1.0000e+00
      -15  1    3    3    0    0 -2.72388665835e+01 +2.32112591734e+01 +2.88887907981e+01  4.59921801934e+01  1.77700000000e+00 0.0000e+00 1.0000e+00
       24  2    1    2    0    0 +2.40769851062e+01 -2.45176276530e-01 -3.26540826371e+02  3.37850173959e+02  8.32710479967e+01 0.0000e+00 0.0000e+00
       12  1    6    6    0    0 +4.91410280959e+00 +3.84886865745e+01 -1.00938943394e+02  1.08139713769e+02  0.00000000000e+00 0.0000e+00 -1.0000e+00
      -11  1    6    6    0    0 +1.91628822966e+01 -3.87338628511e+01 -2.25601882977e+02  2.29710460190e+02  0.00000000000e+00 0.0000e+00 1.0000e+00
        1  1    1    2  501    0 -1.39281313175e+01 +2.02815527279e+02 -2.54786973697e+02  3.25951734023e+02  0.00000000000e+00 0.0000e+00 -1.0000e+00
        1  1    1    2  502    0 -2.39671926263e+01 -1.99733572413e+02 +7.61117905945e+01  2.15083544091e+02  0.00000000000e+00 0.0000e+00 -1.0000e+00
#  0.1300000e+05  0.1300000e+05  0.1300000e+05  0.1300000e+05
<mgrwt>
<rscale>  2 0.13027477e+03</rscale>
<asrwt>0</asrwt>
<pdfrwt beam="1">  1        2 0.40581640e-01 0.81754325e+02</pdfrwt>
<pdfrwt beam="2">  1        2 0.11008671e+00 0.85566405e+02</pdfrwt>
<totfact> 0.10625949e+01</totfact>
</mgrwt>
<clustering>
<clus scale="   81.754">  1  3  2 -1</clus>
<clus scale="   85.566">  2  4  1 -1</clus>
<clus scale="  202.915">  1  6  2 -1</clus>
<clus scale="  202.915">  1  3  2 -1</clus>
</clustering>
<rwgt>
  <wgt id="1">4.51223e-06</wgt>
  <wgt id="2">2.86921e-06</wgt>
  <wgt id="3">1.98994e-06</wgt>
  <wgt id="4">4.44287e-06</wgt>
  <wgt id="5">2.8251e-06</wgt>
  <wgt id="6">1.95935e-06</wgt>
  <wgt id="7">4.30684e-06</wgt>
  <wgt id="8">2.7386e-06</wgt>
  <wgt id="9">1.89936e-06</wgt>
  <wgt id="10">2.8251e-06</wgt>
  <wgt id="11">2.8251e-06</wgt>
  <wgt id="12">2.8251e-06</wgt>
  <wgt id="13">2.8251e-06</wgt>
  <wgt id="14">2.82821e-06</wgt>
  <wgt id="15">2.82251e-06</wgt>
  <wgt id="16">2.82805e-06</wgt>
  <wgt id="17">2.82165e-06</wgt>
  <wgt id="18">2.8137e-06</wgt>
  <wgt id="19">2.84195e-06</wgt>
  <wgt id="20">2.81301e-06</wgt>
  <wgt id="21">2.83323e-06</wgt>
  <wgt id="22">2.83058e-06</wgt>
  <wgt id="23">2.81728e-06</wgt>
  <wgt id="24">2.85663e-06</wgt>
  <wgt id="25">2.80558e-06</wgt>
  <wgt id="26">2.82339e-06</wgt>
  <wgt id="27">2.82746e-06</wgt>
  <wgt id="28">2.85885e-06</wgt>
  <wgt id="29">2.8128e-06</wgt>
  <wgt id="30">2.8311e-06</wgt>
  <wgt id="31">2.81714e-06</wgt>
  <wgt id="32">2.83083e-06</wgt>
  <wgt id="33">2.81962e-06</wgt>
  <wgt id="34">2.79478e-06</wgt>
  <wgt id="35">2.88032e-06</wgt>
  <wgt id="36">2.83478e-06</wgt>
  <wgt id="37">2.82086e-06</wgt>
  <wgt id="38">2.81732e-06</wgt>
  <wgt id="39">2.82875e-06</wgt>
  <wgt id="40">2.82541e-06</wgt>
  <wgt id="41">2.82529e-06</wgt>
  <wgt id="42">2.84449e-06</wgt>
  <wgt id="43">2.78739e-06</wgt>
  <wgt id="44">2.83631e-06</wgt>
  <wgt id="45">2.82065e-06</wgt>
  <wgt id="46">2.82475e-06</wgt>
  <wgt id="47">2.82589e-06</wgt>
  <wgt id="48">2.79099e-06</wgt>
  <wgt id="49">2.84156e-06</wgt>
  <wgt id="50">2.81284e-06</wgt>
  <wgt id="51">2.83719e-06</wgt>
  <wgt id="52">2.82448e-06</wgt>
  <wgt id="53">2.82502e-06</wgt>
</rwgt>
</event>
<event>
 11      0 +2.8251000e-06 3.19873900e+02 7.54677100e-03 1.04234000e-01
        2 -1    0    0  503    0 +0.00000000000e+00 +0.00000000000e+00 +5.98427205610e+02  5.98427205610e+02  0.00000000000e+00 0.0000e+00 -1.0000e+00
        2 -1    0    0  502    0 +0.00000000000e+00 +0.00000000000e+00 -3.10346138110e+03  3.10346138110e+03  0.00000000000e+00 0.0000e+00 -1.0000e+00
       24  2    1    2    0    0 +2.83550131893e+02 -1.19672238039e+02 -1.12030406605e+02  3.37928024048e+02  8.32010551571e+01 0.0000e+00 0.0000e+00
        4  1    3    3  504    0 +1.80045662576e+02 -5.42915933528e+01 -2.96738093352e+01  1.90380021751e+02  0.00000000000e+00 0.0000e+00 -1.0000e+00
       -3  1    3    3    0  504 +1.03504469316e+02 -6.53806446867e+01 -8.23565972697e+01  1.47548002297e+02  0.00000000000e+00 0.0000e+00 1.0000e+00
       24  2    1    2    0    0 +7.27917877059e+01 +3.89278922233e+01 -1.82470563990e+03  1.82821343857e+03  7.74575983186e+01 0.0000e+00 0.0000e+00
        4  1    6    6  505    0 +8.35523422871e+00 +4.64925329653e+01 -8.96023294919e+02  8.97267580267e+02  0.00000000000e+00 0.0000e+00 -1.0000e+00
       -3  1    6    6    0  505 +6.44365534772e+01 -7.56464074192e+00 -9.28682344977e+02  9.30945858300e+02  0.00000000000e+00 0.0000e+00 1.0000e+00
       21  1    1    2  503  501 -4.35712906260e+01 +5.80353581884e+01 -2.84239929814e+02  2.93357968816e+02  0.00000000000e+00 0.0000e+00 -1.0000e+00
        1  1    1    2  501    0 -4.36365711518e-01 +1.02020520052e+02 -7.04954152479e+02  7.12298205827e+02  0.00000000000e+00 0.0000e+00 -1.0000e+00
        1  1    1    2  502    0 -3.12334263261e+02 -7.93115324243e+01 +4.20895953305e+02  5.30090949452e+02  0.00000000000e+00 0.0000e+00 -1.0000e+00
#  0.1300000e+05  0.1300000e+05  0.6123344e+02  0.1300000e+05  0.1300000e+05
<mgrwt>
<rscale>  2 0.24746457e+03</rscale>
<asrwt>  1 0.61233440e+02</asrwt>
<pdfrwt beam="1">  1        2 0.92065724e-01 0.31987389e+03</pdfrwt>
<pdfrwt beam="2">  1        2 0.47745560e+00 0.11458183e+03</pdfrwt>
<totfact> 0.22091642e-02</totfact>
</mgrwt>
<clustering>
<clus scale="   61.233">  5  6 -1 -1</clus>
<clus scale="  114.582">  2  4  1 -1</clus>
<clus scale="  204.113">  2  5  1 -1</clus>
<clus scale="  309.600">  2  7  1 -1</clus>
<clus scale="  319.874">  1  3  2 -1</clus>
</clustering>
<rwgt>
  <wgt id="1">5.62868e-06</wgt>
  <wgt id="2">3.74354e-06</wgt>
  <wgt id="3">2.67455e-06</wgt>
  <wgt id="4">4.24774e-06</wgt>
  <wgt id="5">2.8251e-06</wgt>
  <wgt id="6">2.01838e-06</wgt>
  <wgt id="7">3.35238e-06</wgt>
  <wgt id="8">2.22961e-06</wgt>
  <wgt id="9">1.59293e-06</wgt>
  <wgt id="10">3.66512e-06</wgt>
  <wgt id="11">2.8251e-06</wgt>
  <wgt id="12">2.30321e-06</wgt>
  <wgt id="13">2.8251e-06</wgt>
  <wgt id="14">2.82834e-06</wgt>
  <wgt id="15">2.8224e-06</wgt>
  <wgt id="16">2.80728e-06</wgt>
  <wgt id="17">2.84497e-06</wgt>
  <wgt id="18">2.80928e-06</wgt>
  <wgt id="19">2.8487e-06</wgt>
  <wgt id="20">2.81454e-06</wgt>
  <wgt id="21">2.83212e-06</wgt>
  <wgt id="22">2.83424e-06</wgt>
  <wgt id="23">2.81209e-06</wgt>
  <wgt id="24">2.87519e-06</wgt>
  <wgt id="25">2.79434e-06</wgt>
  <wgt id="26">2.82428e-06</wgt>
  <wgt id="27">2.82619e-06</wgt>
  <wgt id="28">2.84915e-06</wgt>
  <wgt id="29">2.8161e-06</wgt>
  <wgt id="30">2.8269e-06</wgt>
  <wgt id="31">2.82277e-06</wgt>
  <wgt id="32">2.81801e-06</wgt>
  <wgt id="33">2.83191e-06</wgt>
  <wgt id="34">2.78572e-06</wgt>
  <wgt id="35">2.8979e-06</wgt>
  <wgt id="36">2.84998e-06</wgt>
  <wgt id="37">2.81231e-06</wgt>
  <wgt id="38">2.81402e-06</wgt>
  <wgt id="39">2.83097e-06</wgt>
  <wgt id="40">2.84121e-06</wgt>
  <wgt id="41">2.8091e-06</wgt>
  <wgt id="42">2.84655e-06</wgt>
  <wgt id="43">2.78975e-06</wgt>
  <wgt id="44">2.83671e-06</wgt>
  <wgt id="45">2.82058e-06</wgt>
  <wgt id="46">2.82569e-06</wgt>
  <wgt id="47">2.82492e-06</wgt>
  <wgt id="48">2.82149e-06</wgt>
  <wgt id="49">2.83288e-06</wgt>
  <wgt id="50">2.81477e-06</wgt>
  <wgt id="51">2.84063e-06</wgt>
  <wgt id="52">2.8357e-06</wgt>
  <wgt id="53">2.82271e-06</wgt>
</rwgt>
</event>
<event>
 11      0 +2.8251000e-06 4.63345400e+02 7.54677100e-03 9.80657000e-02
        2 -1    0    0  501    0 +0.00000000000e+00 +0.00000000000e+00 +1.34170275840e+03  1.34170275840e+03  0.00000000000e+00 0.0000e+00 -1.0000e+00
        2 -1    0    0  503    0 +0.00000000000e+00 +0.00000000000e+00 -1.45956052810e+03  1.45956052810e+03  0.00000000000e+00 0.0000e+00 -1.0000e+00
       24  2    1    2    0    0 -1.03358501922e+02 +4.48369527075e+01 -7.46265782831e+02  7.59173030694e+02  8.20837356686e+01 0.0000e+00 0.0000e+00
       16  1    3    3    0    0 -1.15015062523e+02 +3.11291033150e+01 -6.86263971133e+02  6.96531208027e+02  0.00000000000e+00 0.0000e+00 -1.0000e+00
      -15  1    3    3    0    0 +1.16565606010e+01 +1.37078493925e+01 -6.00018116980e+01  6.26418226671e+01  1.77700000000e+00 0.0000e+00 1.0000e+00
       24  2    1    2    0    0 -2.99788616557e+02 -3.47732319500e+02 +6.75833429631e+02  8.20994121499e+02  8.05576953970e+01 0.0000e+00 0.0000e+00
       14  1    6    6    0    0 -2.03150092265e+02 -2.79689480967e+02 +5.37176862457e+02  6.38791943680e+02  0.00000000000e+00 0.0000e+00 -1.0000e+00
      -13  1    6    6    0    0 -9.66385242916e+01 -6.80428385338e+01 +1.38656567173e+02  1.82202177819e+02  0.00000000000e+00 0.0000e+00 1.0000e+00
       21  1    1    2  503  502 +1.88213425348e+02 -2.29835974237e+02 +9.18059567506e+01  3.10929577605e+02  0.00000000000e+00 0.0000e+00 -1.0000e+00
        1  1    1    2  501    0 +3.86901990998e+01 +1.00355640324e+02 -3.72859621153e+02  3.88062473240e+02  0.00000000000e+00 0.0000e+00 -1.0000e+00
        1  1    1    2  502    0 +1.76243494032e+02 +4.32375700706e+02 +2.33628247902e+02  5.22104083462e+02  0.00000000000e+00 0.0000e+00 -1.0000e+00
#  0.1300000e+05  0.1300000e+05  0.2460070e+03  0.1300000e+05  0.1300000e+05
<mgrwt>
<rscale>  3 0.39806373e+03</rscale>
<asrwt>0</asrwt>
<pdfrwt beam="1">  1        2 0.20641581e+00 0.46334540e+03</pdfrwt>
<pdfrwt beam="2">  1        2 0.22454777e+00 0.25240378e+03</pdfrwt>
<totfact> 0.35727228e-02</totfact>
</mgrwt>
<clustering>
<clus scale="  108.473">  3  6 -1 -1</clus>
<clus scale="  252.404">  2  3  1 -1</clus>
<clus scale="  246.007">  2  5  1 -1</clus>
<clus scale="  456.313">  2  7  1 -1</clus>
<clus scale="  463.345">  1  3  2 -1</clus>
</clustering>
<rwgt>
  <wgt id="1">6.09318e-06</wgt>
  <wgt id="2">3.44592e-06</wgt>
  <wgt id="3">2.14102e-06</wgt>
  <wgt id="4">4.99543e-06</wgt>
  <wgt id="5">2.8251e-06</wgt>
  <wgt id="6">1.75529e-06</wgt>
  <wgt id="7">4.20045e-06</wgt>
  <wgt id="8">2.37551e-06</wgt>
  <wgt id="9">1.47596e-06</wgt>
  <wgt id="10">2.8251e-06</wgt>
  <wgt id="11">2.8251e-06</wgt>
  <wgt id="12">2.8251e-06</wgt>
  <wgt id="13">2.8251e-06</wgt>
  <wgt id="14">2.82811e-06</wgt>
  <wgt id="15">2.82257e-06</wgt>
  <wgt id="16">2.80563e-06</wgt>
  <wgt id="17">2.84678e-06</wgt>
  <wgt id="18">2.81053e-06</wgt>
  <wgt id="19">2.8466e-06</wgt>
  <wgt id="20">2.81851e-06</wgt>
  <wgt id="21">2.82952e-06</wgt>
  <wgt id="22">2.83396e-06</wgt>
  <wgt id="23">2.81241e-06</wgt>
  <wgt id="24">2.87316e-06</wgt>
  <wgt id="25">2.79551e-06</wgt>
  <wgt id="26">2.82595e-06</wgt>
  <wgt id="27">2.82385e-06</wgt>
  <wgt id="28">2.87882e-06</wgt>
  <wgt id="29">2.80567e-06</wgt>
  <wgt id="30">2.8314e-06</wgt>
  <wgt id="31">2.81716e-06</wgt>
  <wgt id="32">2.82577e-06</wgt>
  <wgt id="33">2.82442e-06</wgt>
  <wgt id="34">2.78101e-06</wgt>
  <wgt id="35">2.90681e-06</wgt>
  <wgt id="36">2.84596e-06</wgt>
  <wgt id="37">2.81319e-06</wgt>
  <wgt id="38">2.81391e-06</wgt>
  <wgt id="39">2.8311e-06</wgt>
  <wgt id="40">2.82963e-06</wgt>
  <wgt id="41">2.82069e-06</wgt>
  <wgt id="42">2.85036e-06</wgt>
  <wgt id="43">2.78551e-06</wgt>
  <wgt id="44">2.83006e-06</wgt>
  <wgt id="45">2.82342e-06</wgt>
  <wgt id="46">2.82231e-06</wgt>
  <wgt id="47">2.82668e-06</wgt>
  <wgt id="48">2.83003e-06</wgt>
  <wgt id="49">2.82841e-06</wgt>
  <wgt id="50">2.81784e-06</wgt>
  <wgt id="51">2.83686e-06</wgt>
  <wgt id="52">2.84389e-06</wgt>
  <wgt id="53">2.82043e-06</wgt>
</rwgt>
</event>
<event>
 11      0 +2.8251000e-06 3.44362700e+02 7.54677100e-03 1.03540200e-01
        2 -1    0    0  501    0 +0.00000000000e+00 +0.00000000000e+00 +1.37135714810e+03  1.37135714810e+03  0.00000000000e+00 0.0000e+00 -1.0000e+00
        2 -1    0    0  503    0 +0.00000000000e+00 +0.00000000000e+00 -6.32718244770e+02  6.32718244770e+02  0.00000000000e+00 0.0000e+00 -1.0000e+00
       24  2    1    2    0    0 -3.79094533030e+01 +1.86009555220e+01 -5.15863465977e+01  1.04331326521e+02  8.02542979676e+01 0.0000e+00 0.0000e+00
        2  1    3    3  504    0 +2.92714857363e+00 -2.83266345651e+01 -1.62950349197e+01  3.28099769520e+01  0.00000000000e+00 0.0000e+00 -1.0000e+00
       -1  1    3    3    0  504 -4.08366018766e+01 +4.69275900871e+01 -3.52913116780e+01  7.15213495690e+01  0.00000000000e+00 0.0000e+00 1.0000e+00
       24  2    1    2    0    0 -2.22496791092e+02 +1.26425722588e+02 +6.08715131964e+02  6.65078732714e+02  7.94186593146e+01 0.0000e+00 0.0000e+00
        4  1    6    6  505    0 -2.22033449926e+02 +1.11960027741e+02 +5.35120288102e+02  5.90074252477e+02  0.00000000000e+00 0.0000e+00 -1.0000e+00
       -3  1    6    6    0  505 -4.63341166004e-01 +1.44656948464e+01 +7.35948438624e+01  7.50044802365e+01  0.00000000000e+00 0.0000e+00 1.0000e+00
       21  1    1    2  503  502 +4.76919568887e+02 +1.22800807889e+02 -1.18364143722e+02  5.06500132403e+02  0.00000000000e+00 0.0000e+00 -1.0000e+00
        1  1    1    2  501    0 -6.58048474914e+01 +1.65173541224e+02 +1.82731663711e+02  2.54957717272e+02  0.00000000000e+00 0.0000e+00 -1.0000e+00
        1  1    1    2  502    0 -1.50708477000e+02 -4.33001027223e+02 +1.17142597975e+02  4.73207483960e+02  0.00000000000e+00 0.0000e+00 -1.0000e+00
#  0.1300000e+05  0.1300000e+05  0.4262718e+03  0.1300000e+05  0.1300000e+05
<mgrwt>
<rscale>  3 0.26030451e+03</rscale>
<asrwt>0</asrwt>
<pdfrwt beam="1">  1        2 0.21097802e+00 0.27819267e+03</pdfrwt>
<pdfrwt beam="2">  1        2 0.97341268e-01 0.90825532e+02</pdfrwt>
<totfact> 0.13844028e-01</totfact>
</mgrwt>
<clustering>
<clus scale="   90.826">  2  3  1 -1</clus>
<clus scale="  179.212">  2  6  1 -1</clus>
<clus scale="  278.193">  1  4  2 -1</clus>
<clus scale="  426.272">  2  5  1 -1</clus>
<clus scale="  426.272">  1  3  2 -1</clus>
</clustering>
<rwgt>
  <wgt id="1">5.92224e-06</wgt>
  <wgt id="2">3.2272e-06</wgt>
  <wgt id="3">1.95507e-06</wgt>
  <wgt id="4">5.18434e-06</wgt>
  <wgt id="5">2.8251e-06</wgt>
  <wgt id="6">1.71147e-06</wgt>
  <wgt id="7">4.5924e-06</wgt>
  <wgt id="8">2.50253e-06</wgt>
  <wgt id="9">1.51606e-06</wgt>
  <wgt id="10">2.8251e-06</wgt>
  <wgt id="11">2.8251e-06</wgt>
  <wgt id="12">2.8251e-06</wgt>
  <wgt id="13">2.8251e-06</wgt>
  <wgt id="14">2.82794e-06</wgt>
  <wgt id="15">2.82267e-06</wgt>
  <wgt id="16">2.81419e-06</wgt>
  <wgt id="17">2.8371e-06</wgt>
  <wgt id="18">2.81159e-06</wgt>
  <wgt id="19">2.84504e-06</wgt>
  <wgt id="20">2.81397e-06</wgt>
  <wgt id="21">2.83254e-06</wgt>
  <wgt id="22">2.83255e-06</wgt>
  <wgt id="23">2.81436e-06</wgt>
  <wgt id="24">2.8667e-06</wgt>
  <wgt id="25">2.79937e-06</wgt>
  <wgt id="26">2.82453e-06</wgt>
  <wgt id="27">2.82578e-06</wgt>
  <wgt id="28">2.87438e-06</wgt>
  <wgt id="29">2.80721e-06</wgt>
  <wgt id="30">2.83068e-06</wgt>
  <wgt id="31">2.81791e-06</wgt>
  <wgt id="32">2.82817e-06</wgt>
  <wgt id="33">2.82205e-06</wgt>
  <wgt id="34">2.7864e-06</wgt>
  <wgt id="35">2.89647e-06</wgt>
  <wgt id="36">2.84701e-06</wgt>
  <wgt id="37">2.81341e-06</wgt>
  <wgt id="38">2.81392e-06</wgt>
  <wgt id="39">2.83074e-06</wgt>
  <wgt id="40">2.82707e-06</wgt>
  <wgt id="41">2.82342e-06</wgt>
  <wgt id="42">2.84876e-06</wgt>
  <wgt id="43">2.78541e-06</wgt>
  <wgt id="44">2.83367e-06</wgt>
  <wgt id="45">2.82184e-06</wgt>
  <wgt id="46">2.82458e-06</wgt>
  <wgt id="47">2.82555e-06</wgt>
  <wgt id="48">2.81353e-06</wgt>
  <wgt id="49">2.83371e-06</wgt>
  <wgt id="50">2.81527e-06</wgt>
  <wgt id="51">2.8388e-06</wgt>
  <wgt id="52">2.83634e-06</wgt>
  <wgt id="53">2.82214e-06</wgt>
</rwgt>
</event>
<event>
 10      0 +2.8251000e-06 1.18500900e+02 7.54677100e-03 1.15790300e-01
        2 -1    0    0  502    0 +0.00000000000e+00 +0.00000000000e+00 +1.47432211100e+03  1.47432211100e+03  0.00000000000e+00 0.0000e+00 -1.0000e+00
        4 -1    0    0  501    0 +0.00000000000e+00 +0.00000000000e+00 -6.52703861300e+01  6.52703861300e+01  0.00000000000e+00 0.0000e+00 -1.0000e+00
       24  2    1    2    0    0 -2.82978002451e+01 -7.19022580591e+01 +8.10595534389e+01  1.38231394504e+02  8.10343569733e+01 0.0000e+00 0.0000e+00
       14  1    3    3    0    0 -1.63901486722e+01 -8.83114070108e+01 +7.51553553526e+01  1.17114768582e+02  0.00000000000e+00 0.0000e+00 -1.0000e+00
      -13  1    3    3    0    0 -1.19076515729e+01 +1.64091489518e+01 +5.90419808631e+00  2.11166259224e+01  0.00000000000e+00 0.0000e+00 1.0000e+00
       24  2    1    2    0    0 -5.34925665752e+01 -6.85515275937e+01 +7.74204590717e+02  7.83349391989e+02  8.17481194100e+01 0.0000e+00 0.0000e+00
        2  1    6    6  503    0 -3.82571753547e+01 -8.11996855375e+01 +4.69584147963e+02  4.78086051266e+02  0.00000000000e+00 0.0000e+00 -1.0000e+00
       -1  1    6    6    0  503 -1.52353912205e+01 +1.26481579438e+01 +3.04620442755e+02  3.05263340722e+02  0.00000000000e+00 0.0000e+00 1.0000e+00
        1  1    1    2  501    0 +1.11626273264e+02 +1.56067638677e+00 +3.65340501238e+02  3.82016416451e+02  0.00000000000e+00 0.0000e+00 -1.0000e+00
        3  1    1    2  502    0 -2.98359064441e+01 +1.38893109266e+02 +1.88447079476e+02  2.35995294186e+02  0.00000000000e+00 0.0000e+00 -1.0000e+00
#  0.1300000e+05  0.1300000e+05  0.1300000e+05  0.1300000e+05
<mgrwt>
<rscale>  2 0.11678253e+03</rscale>
<asrwt>0</asrwt>
<pdfrwt beam="1">  1        2 0.22681879e+00 0.11850090e+03</pdfrwt>
<pdfrwt beam="2">  1        4 0.10041598e-01 0.11177547e+03</pdfrwt>
<totfact> 0.92599310e+00</totfact>
</mgrwt>
<clustering>
<clus scale="  111.775">  2  3  1 -1</clus>
<clus scale="  104.112">  2  6  1 -1</clus>
<clus scale="   87.036">  2  5  1 -1</clus>
<clus scale="  118.501">  1  3  2 -1</clus>
</clustering>
<rwgt>
  <wgt id="1">4.07858e-06</wgt>
  <wgt id="2">2.57172e-06</wgt>
  <wgt id="3">1.77336e-06</wgt>
  <wgt id="4">4.48042e-06</wgt>
  <wgt id="5">2.8251e-06</wgt>
  <wgt id="6">1.94808e-06</wgt>
  <wgt id="7">4.60564e-06</wgt>
  <wgt id="8">2.90406e-06</wgt>
  <wgt id="9">2.00252e-06</wgt>
  <wgt id="10">2.8251e-06</wgt>
  <wgt id="11">2.8251e-06</wgt>
  <wgt id="12">2.8251e-06</wgt>
  <wgt id="13">2.8251e-06</wgt>
  <wgt id="14">2.83028e-06</wgt>
  <wgt id="15">2.82081e-06</wgt>
  <wgt id="16">2.81783e-06</wgt>
  <wgt id="17">2.83314e-06</wgt>
  <wgt id="18">2.82023e-06</wgt>
  <wgt id="19">2.83221e-06</wgt>
  <wgt id="20">2.82398e-06</wgt>
  <wgt id="21">2.82583e-06</wgt>
  <wgt id="22">2.82574e-06</wgt>
  <wgt id="23">2.82416e-06</wgt>
  <wgt id="24">2.82668e-06</wgt>
  <wgt id="25">2.82387e-06</wgt>
  <wgt id="26">2.83176e-06</wgt>
  <wgt id="27">2.81589e-06</wgt>
  <wgt id="28">2.84291e-06</wgt>
  <wgt id="29">2.81854e-06</wgt>
  <wgt id="30">2.8416e-06</wgt>
  <wgt id="31">2.79971e-06</wgt>
  <wgt id="32">2.82082e-06</wgt>
  <wgt id="33">2.82904e-06</wgt>
  <wgt id="34">2.79529e-06</wgt>
  <wgt id="35">2.87785e-06</wgt>
  <wgt id="36">2.8442e-06</wgt>
  <wgt id="37">2.81354e-06</wgt>
  <wgt id="38">2.82638e-06</wgt>
  <wgt id="39">2.82462e-06</wgt>
  <wgt id="40">2.82891e-06</wgt>
  <wgt id="41">2.82394e-06</wgt>
  <wgt id="42">2.82704e-06</wgt>
  <wgt id="43">2.82475e-06</wgt>
  <wgt id="44">2.8289e-06</wgt>
  <wgt id="45">2.82374e-06</wgt>
  <wgt id="46">2.82592e-06</wgt>
  <wgt id="47">2.82462e-06</wgt>
  <wgt id="48">2.82184e-06</wgt>
  <wgt id="49">2.82989e-06</wgt>
  <wgt id="50">2.82188e-06</wgt>
  <wgt id="51">2.80949e-06</wgt>
  <wgt id="52">2.82944e-06</wgt>
  <wgt id="53">2.82417e-06</wgt>
</rwgt>
</event>
<event>
 11      0 +2.8251000e-06 3.03089600e+02 7.54677100e-03 1.04064000e-01
        2 -1    0    0  503    0 +0.00000000000e+00 +0.00000000000e+00 +3.42185285300e+03  3.42185285300e+03  0.00000000000e+00 0.0000e+00 -1.0000e+00
       -1 -1    0    0    0  501 +0.00000000000e+00 +0.00000000000e+00 -1.99829658720e+02  1.99829658720e+02  0.00000000000e+00 0.0000e+00 1.0000e+00
       24  2    1    2    0    0 +1.28955626680e+02 -7.15636629294e+01 +1.22229979117e+03  1.23383020036e+03  8.10510476893e+01 0.0000e+00 0.0000e+00
        4  1    3    3  504    0 +1.07043429066e+01 -3.43721264353e+01 +1.44148863545e+02  1.48576313368e+02  0.00000000000e+00 0.0000e+00 -1.0000e+00
       -3  1    3    3    0  504 +1.18251283774e+02 -3.71915364941e+01 +1.07815092762e+03  1.08525388699e+03  0.00000000000e+00 0.0000e+00 1.0000e+00
       24  2    1    2    0    0 +1.11765768921e+02 -3.63728930273e+01 +2.02390948708e+02  2.46911456192e+02  7.86676339417e+01 0.0000e+00 0.0000e+00
       14  1    6    6    0    0 -1.09581529380e+01 -8.83868113632e+00 +1.08829409415e+01  1.77944318139e+01  0.00000000000e+00 0.0000e+00 -1.0000e+00
      -13  1    6    6    0    0 +1.22723921859e+02 -2.75342118910e+01 +1.91508007767e+02  2.29117024378e+02  0.00000000000e+00 0.0000e+00 1.0000e+00
       21  1    1    2  503  501 -3.27580140529e+02 +1.32107121786e+02 +2.14946131453e+02  4.13476576752e+02  0.00000000000e+00 0.0000e+00 1.0000e+00
        1  1    1    2  502    0 -8.47335101712e+01 -8.68824802751e+01 +1.53356646933e+03  1.53836096187e+03  0.00000000000e+00 0.0000e+00 -1.0000e+00
       -2  1    1    2    0  502 +1.71592255099e+02 +6.27119144460e+01 +4.88198536181e+01  1.89103316551e+02  0.00000000000e+00 0.0000e+00 1.0000e+00
#  0.1300000e+05  0.1300000e+05  0.1707439e+03  0.1300000e+05  0.1300000e+05
<mgrwt>
<rscale>  3 0.25053315e+03</rscale>
<asrwt>0</asrwt>
<pdfrwt beam="1">  1        2 0.52643890e+00 0.30308955e+03</pdfrwt>
<pdfrwt beam="2">  1       -1 0.30743024e-01 0.14149722e+03</pdfrwt>
<totfact> 0.15204229e-02</totfact>
</mgrwt>
<clustering>
<clus scale="  121.125">  3  6 -1 -1</clus>
<clus scale="  141.497">  2  4  1 -1</clus>
<clus scale="  221.063">  2  7  1 -1</clus>
<clus scale="  170.744">  2  5  1 -1</clus>
<clus scale="  303.090">  1  3  2 -1</clus>
</clustering>
<rwgt>
  <wgt id="1">6.39455e-06</wgt>
  <wgt id="2">3.47232e-06</wgt>
  <wgt id="3">2.09851e-06</wgt>
  <wgt id="4">5.20264e-06</wgt>
  <wgt id="5">2.8251e-06</wgt>
  <wgt id="6">1.70736e-06</wgt>
  <wgt id="7">4.30855e-06</wgt>
  <wgt id="8">2.3396e-06</wgt>
  <wgt id="9">1.41395e-06</wgt>
  <wgt id="10">2.8251e-06</wgt>
  <wgt id="11">2.8251e-06</wgt>
  <wgt id="12">2.8251e-06</wgt>
  <wgt id="13">2.8251e-06</wgt>
  <wgt id="14">2.8308e-06</wgt>
  <wgt id="15">2.82039e-06</wgt>
  <wgt id="16">2.82338e-06</wgt>
  <wgt id="17">2.82689e-06</wgt>
  <wgt id="18">2.80821e-06</wgt>
  <wgt id="19">2.85026e-06</wgt>
  <wgt id="20">2.83495e-06</wgt>
  <wgt id="21">2.81845e-06</wgt>
  <wgt id="22">2.83612e-06</wgt>
  <wgt id="23">2.80955e-06</wgt>
  <wgt id="24">2.8835e-06</wgt>
  <wgt id="25">2.78951e-06</wgt>
  <wgt id="26">2.82577e-06</wgt>
  <wgt id="27">2.8242e-06</wgt>
  <wgt id="28">2.81738e-06</wgt>
  <wgt id="29">2.82757e-06</wgt>
  <wgt id="30">2.82755e-06</wgt>
  <wgt id="31">2.82109e-06</wgt>
  <wgt id="32">2.82166e-06</wgt>
  <wgt id="33">2.8283e-06</wgt>
  <wgt id="34">2.7995e-06</wgt>
  <wgt id="35">2.87178e-06</wgt>
  <wgt id="36">2.86012e-06</wgt>
  <wgt id="37">2.80413e-06</wgt>
  <wgt id="38">2.8259e-06</wgt>
  <wgt id="39">2.82517e-06</wgt>
  <wgt id="40">2.84045e-06</wgt>
  <wgt id="41">2.81042e-06</wgt>
  <wgt id="42">2.8435e-06</wgt>
  <wgt id="43">2.78539e-06</wgt>
  <wgt id="44">2.83351e-06</wgt>
  <wgt id="45">2.82198e-06</wgt>
  <wgt id="46">2.81644e-06</wgt>
  <wgt id="47">2.8314e-06</wgt>
  <wgt id="48">2.83599e-06</wgt>
  <wgt id="49">2.82549e-06</wgt>
  <wgt id="50">2.82665e-06</wgt>
  <wgt id="51">2.81959e-06</wgt>
  <wgt id="52">2.83725e-06</wgt>
  <wgt id="53">2.82227e-06</wgt>
</rwgt>
</event>
<event>
 10      0 +2.8251000e-06 2.41678900e+02 7.54677100e-03 1.07459200e-01
        2 -1    0    0  501    0 +0.00000000000e+00 +0.00000000000e+00 +6.96305670690e+02  6.96305670690e+02  0.00000000000e+00 0.0000e+00 -1.0000e+00
       -1 -1    0    0    0  501 +0.00000000000e+00 +0.00000000000e+00 -3.69229023780e+02  3.69229023780e+02  0.00000000000e+00 0.0000e+00 1.0000e+00
       24  2    1    2    0    0 -4.54753955172e+01 -2.14026104105e+02 -1.47284776677e+02  2.76001382551e+02  8.12943595424e+01 0.0000e+00 0.0000e+00
       16  1    3    3    0    0 -6.18184275153e+00 -2.87172419690e+01 -6.12915543230e+01  6.79672700455e+01  0.00000000000e+00 0.0000e+00 -1.0000e+00
      -15  1    3    3    0    0 -3.92935527656e+01 -1.85308862136e+02 -8.59932223539e+01  2.08034112505e+02  1.77700000000e+00 0.0000e+00 1.0000e+00
       24  2    1    2    0    0 +1.32616784274e+01 -6.86223498203e+01 +5.84834182485e+01  1.25404486402e+02  8.61456672748e+01 0.0000e+00 0.0000e+00
        4  1    6    6  503    0 +6.70960621129e+00 +1.69292041369e+01 -4.73171675021e+00  1.88150448212e+01  0.00000000000e+00 0.0000e+00 -1.0000e+00
       -3  1    6    6    0  503 +6.55207221606e+00 -8.55515539573e+01 +6.32151349987e+01  1.06589441581e+02  0.00000000000e+00 0.0000e+00 1.0000e+00
        1  1    1    2  502    0 -1.27742932965e+02 +6.86496497894e+01 +3.64189668253e+02  3.92001461478e+02  0.00000000000e+00 0.0000e+00 -1.0000e+00
       -2  1    1    2    0  502 +1.59956650055e+02 +2.13998804136e+02 +5.16883370859e+01  2.72127364039e+02  0.00000000000e+00 0.0000e+00 1.0000e+00
#  0.1300000e+05  0.1300000e+05  0.1300000e+05  0.1300000e+05
<mgrwt>
<rscale>  2 0.19732353e+03</rscale>
<asrwt>0</asrwt>
<pdfrwt beam="1">  1        2 0.10712395e+00 0.10739875e+03</pdfrwt>
<pdfrwt beam="2">  1       -1 0.56804465e-01 0.24167891e+03</pdfrwt>
<totfact> 0.22673455e+00</totfact>
</mgrwt>
<clustering>
<clus scale="  107.399">  1  4  2 -1</clus>
<clus scale="  122.815">  1  5  2 -1</clus>
<clus scale="  227.907">  1  6  2 -1</clus>
<clus scale="  241.679">  1  3  2 -1</clus>
</clustering>
<rwgt>
  <wgt id="1">4.60493e-06</wgt>
  <wgt id="2">3.01774e-06</wgt>
  <wgt id="3">2.13482e-06</wgt>
  <wgt id="4">4.31096e-06</wgt>
  <wgt id="5">2.8251e-06</wgt>
  <wgt id="6">1.99854e-06</wgt>
  <wgt id="7">4.02131e-06</wgt>
  <wgt id="8">2.63528e-06</wgt>
  <wgt id="9">1.86426e-06</wgt>
  <wgt id="10">2.8251e-06</wgt>
  <wgt id="11">2.8251e-06</wgt>
  <wgt id="12">2.8251e-06</wgt>
  <wgt id="13">2.8251e-06</wgt>
  <wgt id="14">2.82994e-06</wgt>
  <wgt id="15">2.82119e-06</wgt>
  <wgt id="16">2.83978e-06</wgt>
  <wgt id="17">2.80843e-06</wgt>
  <wgt id="18">2.81064e-06</wgt>
  <wgt id="19">2.84659e-06</wgt>
  <wgt id="20">2.84066e-06</wgt>
  <wgt id="21">2.81453e-06</wgt>
  <wgt id="22">2.83554e-06</wgt>
  <wgt id="23">2.81035e-06</wgt>
  <wgt id="24">2.8806e-06</wgt>
  <wgt id="25">2.79105e-06</wgt>
  <wgt id="26">2.82499e-06</wgt>
  <wgt id="27">2.82533e-06</wgt>
  <wgt id="28">2.85436e-06</wgt>
  <wgt id="29">2.81449e-06</wgt>
  <wgt id="30">2.82205e-06</wgt>
  <wgt id="31">2.82812e-06</wgt>
  <wgt id="32">2.84169e-06</wgt>
  <wgt id="33">2.80904e-06</wgt>
  <wgt id="34">2.81077e-06</wgt>
  <wgt id="35">2.85082e-06</wgt>
  <wgt id="36">2.84182e-06</wgt>
  <wgt id="37">2.81275e-06</wgt>
  <wgt id="38">2.84693e-06</wgt>
  <wgt id="39">2.81504e-06</wgt>
  <wgt id="40">2.81589e-06</wgt>
  <wgt id="41">2.83514e-06</wgt>
  <wgt id="42">2.84358e-06</wgt>
  <wgt id="43">2.78111e-06</wgt>
  <wgt id="44">2.83665e-06</wgt>
  <wgt id="45">2.8208e-06</wgt>
  <wgt id="46">2.82394e-06</wgt>
  <wgt id="47">2.8272e-06</wgt>
  <wgt id="48">2.81389e-06</wgt>
  <wgt id="49">2.83122e-06</wgt>
  <wgt id="50">2.82837e-06</wgt>
  <wgt id="51">2.82535e-06</wgt>
  <wgt id="52">2.82497e-06</wgt>
  <wgt id="53">2.82494e-06</wgt>
</rwgt>
</event>
<event>
 10      0 +2.8251000e-06 4.77977800e+02 7.54677100e-03 9.78042100e-02
        2 -1    0    0  501    0 +0.00000000000e+00 +0.00000000000e+00 +3.07961541140e+02  3.07961541140e+02  0.00000000000e+00 0.0000e+00 -1.0000e+00
       -3 -1    0    0    0  501 +0.00000000000e+00 +0.00000000000e+00 -6.26733106040e+02  6.26733106040e+02  0.00000000000e+00 0.0000e+00 1.0000e+00
       24  2    1    2    0    0 +2.81945796739e+00 -1.01116181826e+02 +1.54967258349e+02  2.02041308263e+02  8.10765534192e+01 0.0000e+00 0.0000e+00
        2  1    3    3  503    0 -5.09753657913e+00 -3.76894212067e+01 +1.26456640914e+02  1.32052108584e+02  0.00000000000e+00 0.0000e+00 -1.0000e+00
       -1  1    3    3    0  503 +7.91699454652e+00 -6.34267606191e+01 +2.85106174343e+01  6.99891996795e+01  0.00000000000e+00 0.0000e+00 1.0000e+00
       24  2    1    2    0    0 +3.35381958797e+01 +1.32656666711e+02 -5.05599266115e+02  5.29979177621e+02  8.07756709077e+01 0.0000e+00 0.0000e+00
        2  1    6    6  504    0 -7.66858982838e+00 -3.13677299460e+00 -9.86455607202e+01  9.89928950207e+01  0.00000000000e+00 0.0000e+00 -1.0000e+00
       -1  1    6    6    0  504 +4.12067857081e+01 +1.35793439706e+02 -4.06953705395e+02  4.30986282601e+02  0.00000000000e+00 0.0000e+00 1.0000e+00
        1  1    1    2  502    0 -1.07623570388e+02 -1.02933521636e+01 +5.94181536153e+01  1.23366539146e+02  0.00000000000e+00 0.0000e+00 -1.0000e+00
       -4  1    1    2    0  502 +7.12659165406e+01 -2.12471327219e+01 -2.75577107492e+01  7.93076221496e+01  0.00000000000e+00 0.0000e+00 1.0000e+00
#  0.1300000e+05  0.1300000e+05  0.1300000e+05  0.1300000e+05
<mgrwt>
<rscale>  2 0.40671179e+03</rscale>
<asrwt>0</asrwt>
<pdfrwt beam="1">  1        2 0.47378699e-01 0.47797779e+03</pdfrwt>
<pdfrwt beam="2">  1       -3 0.96420478e-01 0.25056701e+03</pdfrwt>
<totfact> 0.80386641e-01</totfact>
</mgrwt>
<clustering>
<clus scale="   74.441">  3  6 -1 -1</clus>
<clus scale="  108.498">  4  5 -1 -1</clus>
<clus scale="  250.567">  2  3  1 -1</clus>
<clus scale="  477.978">  1  3  2 -1</clus>
</clustering>
<rwgt>
  <wgt id="1">4.26504e-06</wgt>
  <wgt id="2">2.91989e-06</wgt>
  <wgt id="3">2.12779e-06</wgt>
  <wgt id="4">4.12659e-06</wgt>
  <wgt id="5">2.8251e-06</wgt>
  <wgt id="6">2.05872e-06</wgt>
  <wgt id="7">3.94576e-06</wgt>
  <wgt id="8">2.7013e-06</wgt>
  <wgt id="9">1.96851e-06</wgt>
  <wgt id="10">2.8251e-06</wgt>
  <wgt id="11">2.8251e-06</wgt>
  <wgt id="12">2.8251e-06</wgt>
  <wgt id="13">2.8251e-06</wgt>
  <wgt id="14">2.8341e-06</wgt>
  <wgt id="15">2.81769e-06</wgt>
  <wgt id="16">2.7913e-06</wgt>
  <wgt id="17">2.86285e-06</wgt>
  <wgt id="18">2.86243e-06</wgt>
  <wgt id="19">2.7694e-06</wgt>
  <wgt id="20">2.78611e-06</wgt>
  <wgt id="21">2.85138e-06</wgt>
  <wgt id="22">2.88088e-06</wgt>
  <wgt id="23">2.746e-06</wgt>
  <wgt id="24">2.77759e-06</wgt>
  <wgt id="25">2.85401e-06</wgt>
  <wgt id="26">2.81875e-06</wgt>
  <wgt id="27">2.83386e-06</wgt>
  <wgt id="28">2.83903e-06</wgt>
  <wgt id="29">2.82002e-06</wgt>
  <wgt id="30">2.81451e-06</wgt>
  <wgt id="31">2.83784e-06</wgt>
  <wgt id="32">2.82269e-06</wgt>
  <wgt id="33">2.82748e-06</wgt>
  <wgt id="34">2.81345e-06</wgt>
  <wgt id="35">2.85124e-06</wgt>
  <wgt id="36">2.81027e-06</wgt>
  <wgt id="37">2.83562e-06</wgt>
  <wgt id="38">2.77823e-06</wgt>
  <wgt id="39">2.84737e-06</wgt>
  <wgt id="40">2.82946e-06</wgt>
  <wgt id="41">2.82303e-06</wgt>
  <wgt id="42">2.82318e-06</wgt>
  <wgt id="43">2.8194e-06</wgt>
  <wgt id="44">2.82764e-06</wgt>
  <wgt id="45">2.82346e-06</wgt>
  <wgt id="46">2.80605e-06</wgt>
  <wgt id="47">2.8313e-06</wgt>
  <wgt id="48">2.79094e-06</wgt>
  <wgt id="49">2.84321e-06</wgt>
  <wgt id="50">2.83103e-06</wgt>
  <wgt id="51">2.83214e-06</wgt>
  <wgt id="52">2.87546e-06</wgt>
  <wgt id="53">2.87538e-06</wgt>
</rwgt>
</event>
<event>
 11      0 +2.8251000e-06 1.65285800e+03 7.54677100e-03 8.88273300e-02
        2 -1    0    0  502    0 +0.00000000000e+00 +0.00000000000e+00 +1.63017786930e+03  1.63017786930e+03  0.00000000000e+00 0.0000e+00 -1.0000e+00
       -1 -1    0    0    0  501 +0.00000000000e+00 +0.00000000000e+00 -6.80110407530e+02  6.80110407530e+02  0.00000000000e+00 0.0000e+00 1.0000e+00
       24  2    1    2    0    0 +8.69413818353e+01 -6.81705331313e+01 +1.08593327634e+03  1.09447333852e+03  8.00923380479e+01 0.0000e+00 0.0000e+00
        2  1    3    3  504    0 +2.92823407171e+01 +1.15385873536e+01 +4.36257917292e+02  4.37391775044e+02  0.00000000000e+00 0.0000e+00 -1.0000e+00
       -1  1    3    3    0  504 +5.76590411181e+01 -7.97091204849e+01 +6.49675359044e+02  6.57081563476e+02  0.00000000000e+00 0.0000e+00 1.0000e+00
       24  2    1    2    0    0 -1.29690337553e+02 +4.29317762117e+01 -2.28640229058e+02  2.78029937788e+02  7.97594564871e+01 0.0000e+00 0.0000e+00
        4  1    6    6  505    0 -3.90436990301e+01 +3.47634406160e+01 -3.18583442452e+01  6.12197789563e+01  0.00000000000e+00 0.0000e+00 -1.0000e+00
       -3  1    6    6    0  505 -9.06466385231e+01 +8.16833559567e+00 -1.96781884813e+02  2.16810158831e+02  0.00000000000e+00 0.0000e+00 1.0000e+00
       21  1    1    2  503  501 +9.20805986000e+00 +4.07081259460e+01 -1.79947214330e+02  1.84723955755e+02  0.00000000000e+00 0.0000e+00 1.0000e+00
        1  1    1    2  502    0 +8.25211112114e+01 -7.26737005924e+01 +5.00873430414e+02  5.12801515061e+02  0.00000000000e+00 0.0000e+00 -1.0000e+00
       -2  1    1    2    0  503 -4.89802153534e+01 +5.72043315661e+01 -2.28151801591e+02  2.40259529708e+02  0.00000000000e+00 0.0000e+00 1.0000e+00
#  0.1300000e+05  0.1300000e+05  0.4004581e+02  0.1300000e+05  0.1183076e+03
<mgrwt>
<rscale>  2 0.92001371e+03</rscale>
<asrwt>  1 0.40045805e+02</asrwt>
<pdfrwt beam="1">  1        2 0.25079660e+00 0.16528575e+04</pdfrwt>
<pdfrwt beam="2">  1       -1 0.10463237e+00 0.15866128e+03</pdfrwt>
<totfact> 0.15875230e-02</totfact>
</mgrwt>
<clustering>
<clus scale="   40.046">  5  7 -1 -1</clus>
<clus scale="  109.406">  3  6 -1 -1</clus>
<clus scale="  118.308">  3  5 -1 -1</clus>
<clus scale="  158.661">  2  4  1 -1</clus>
<clus scale=" 1652.858">  1  3  2 -1</clus>
</clustering>
<rwgt>
  <wgt id="1">4.77243e-06</wgt>
  <wgt id="2">3.39896e-06</wgt>
  <wgt id="3">2.54686e-06</wgt>
  <wgt id="4">3.96668e-06</wgt>
  <wgt id="5">2.8251e-06</wgt>
  <wgt id="6">2.11686e-06</wgt>
  <wgt id="7">3.36217e-06</wgt>
  <wgt id="8">2.39456e-06</wgt>
  <wgt id="9">1.79426e-06</wgt>
  <wgt id="10">3.7547e-06</wgt>
  <wgt id="11">2.8251e-06</wgt>
  <wgt id="12">2.27031e-06</wgt>
  <wgt id="13">2.8251e-06</wgt>
  <wgt id="14">2.82961e-06</wgt>
  <wgt id="15">2.82144e-06</wgt>
  <wgt id="16">2.83195e-06</wgt>
  <wgt id="17">2.81731e-06</wgt>
  <wgt id="18">2.80867e-06</wgt>
  <wgt id="19">2.84963e-06</wgt>
  <wgt id="20">2.85716e-06</wgt>
  <wgt id="21">2.80359e-06</wgt>
  <wgt id="22">2.83962e-06</wgt>
  <wgt id="23">2.80459e-06</wgt>
  <wgt id="24">2.90013e-06</wgt>
  <wgt id="25">2.77945e-06</wgt>
  <wgt id="26">2.82686e-06</wgt>
  <wgt id="27">2.82274e-06</wgt>
  <wgt id="28">2.86153e-06</wgt>
  <wgt id="29">2.81203e-06</wgt>
  <wgt id="30">2.81478e-06</wgt>
  <wgt id="31">2.83787e-06</wgt>
  <wgt id="32">2.84104e-06</wgt>
  <wgt id="33">2.80987e-06</wgt>
  <wgt id="34">2.81028e-06</wgt>
  <wgt id="35">2.85168e-06</wgt>
  <wgt id="36">2.80352e-06</wgt>
  <wgt id="37">2.83353e-06</wgt>
  <wgt id="38">2.89637e-06</wgt>
  <wgt id="39">2.79308e-06</wgt>
  <wgt id="40">2.8185e-06</wgt>
  <wgt id="41">2.83219e-06</wgt>
  <wgt id="42">2.8346e-06</wgt>
  <wgt id="43">2.79632e-06</wgt>
  <wgt id="44">2.84824e-06</wgt>
  <wgt id="45">2.81635e-06</wgt>
  <wgt id="46">2.84062e-06</wgt>
  <wgt id="47">2.81609e-06</wgt>
  <wgt id="48">2.8253e-06</wgt>
  <wgt id="49">2.82932e-06</wgt>
  <wgt id="50">2.8214e-06</wgt>
  <wgt id="51">2.83938e-06</wgt>
  <wgt id="52">2.80927e-06</wgt>
  <wgt id="53">2.82987e-06</wgt>
</rwgt>
</event>
<event>
 10      0 +2.8251000e-06 4.64607100e+02 7.54677100e-03 1.01079600e-01
        2 -1    0    0  502    0 +0.00000000000e+00 +0.00000000000e+00 +3.02245152460e+02  3.02245152460e+02  0.00000000000e+00 0.0000e+00 -1.0000e+00
       -1 -1    0    0    0  501 +0.00000000000e+00 +0.00000000000e+00 -3.59842374110e+02  3.59842374110e+02  0.00000000000e+00 0.0000e+00 1.0000e+00
       24  2    1    2    0    0 +3.00337570700e+01 -1.72285626617e+01 +2.49067123419e+02  2.63760391481e+02  7.96006420271e+01 0.0000e+00 0.0000e+00
       12  1    3    3    0    0 +3.90063268919e+01 -4.29138910639e+01 +1.44276358007e+02  1.55495218781e+02  0.00000000000e+00 0.0000e+00 -1.0000e+00
      -11  1    3    3    0    0 -8.97256982193e+00 +2.56853284022e+01 +1.04790765411e+02  1.08265172700e+02  0.00000000000e+00 0.0000e+00 1.0000e+00
       24  2    1    2    0    0 -3.80854997019e+01 +3.61389351763e+01 -1.59987125465e+02  1.86615562255e+02  8.04547067489e+01 0.0000e+00 0.0000e+00
        4  1    6    6  503    0 -5.06455365412e+00 +1.23926120257e+01 +6.74749112785e+00  1.49918368807e+01  0.00000000000e+00 0.0000e+00 -1.0000e+00
       -3  1    6    6    0  503 -3.30209460478e+01 +2.37463231505e+01 -1.66734616593e+02  1.71623725375e+02  0.00000000000e+00 0.0000e+00 1.0000e+00
        1  1    1    2  502    0 +1.01115538263e+01 -7.63689152603e+01 -3.19785046169e+01  8.34091091929e+01  0.00000000000e+00 0.0000e+00 -1.0000e+00
       -2  1    1    2    0  501 -2.05981119437e+00 +5.74585427458e+01 -1.14698714987e+02  1.28302463640e+02  0.00000000000e+00 0.0000e+00 1.0000e+00
#  0.1300000e+05  0.1300000e+05  0.7713365e+02  0.1300000e+05
<mgrwt>
<rscale>  2 0.31323692e+03</rscale>
<asrwt>0</asrwt>
<pdfrwt beam="1">  1        2 0.46499254e-01 0.46460714e+03</pdfrwt>
<pdfrwt beam="2">  1       -1 0.55360365e-01 0.95991800e+02</pdfrwt>
<totfact> 0.52560740e+00</totfact>
</mgrwt>
<clustering>
<clus scale="   57.507">  3  6 -1 -1</clus>
<clus scale="   77.134">  3  5 -1 -1</clus>
<clus scale="   95.992">  2  4  1 -1</clus>
<clus scale="  464.607">  1  3  2 -1</clus>
</clustering>
<rwgt>
  <wgt id="1">4.23447e-06</wgt>
  <wgt id="2">2.857e-06</wgt>
  <wgt id="3">2.06106e-06</wgt>
  <wgt id="4">4.1872e-06</wgt>
  <wgt id="5">2.8251e-06</wgt>
  <wgt id="6">2.03805e-06</wgt>
  <wgt id="7">4.07477e-06</wgt>
  <wgt id="8">2.74925e-06</wgt>
  <wgt id="9">1.98333e-06</wgt>
  <wgt id="10">2.8251e-06</wgt>
  <wgt id="11">2.8251e-06</wgt>
  <wgt id="12">2.8251e-06</wgt>
  <wgt id="13">2.8251e-06</wgt>
  <wgt id="14">2.8303e-06</wgt>
  <wgt id="15">2.82088e-06</wgt>
  <wgt id="16">2.84642e-06</wgt>
  <wgt id="17">2.80135e-06</wgt>
  <wgt id="18">2.81167e-06</wgt>
  <wgt id="19">2.84532e-06</wgt>
  <wgt id="20">2.84252e-06</wgt>
  <wgt id="21">2.81337e-06</wgt>
  <wgt id="22">2.83488e-06</wgt>
  <wgt id="23">2.8113e-06</wgt>
  <wgt id="24">2.87673e-06</wgt>
  <wgt id="25">2.7936e-06</wgt>
  <wgt id="26">2.82492e-06</wgt>
  <wgt id="27">2.82559e-06</wgt>
  <wgt id="28">2.8438e-06</wgt>
  <wgt id="29">2.81846e-06</wgt>
  <wgt id="30">2.82353e-06</wgt>
  <wgt id="31">2.82643e-06</wgt>
  <wgt id="32">2.84264e-06</wgt>
  <wgt id="33">2.80845e-06</wgt>
  <wgt id="34">2.81362e-06</wgt>
  <wgt id="35">2.84567e-06</wgt>
  <wgt id="36">2.83239e-06</wgt>
  <wgt id="37">2.81858e-06</wgt>
  <wgt id="38">2.84787e-06</wgt>
  <wgt id="39">2.81465e-06</wgt>
  <wgt id="40">2.81645e-06</wgt>
  <wgt id="41">2.83476e-06</wgt>
  <wgt id="42">2.84212e-06</wgt>
  <wgt id="43">2.78085e-06</wgt>
  <wgt id="44">2.83596e-06</wgt>
  <wgt id="45">2.82117e-06</wgt>
  <wgt id="46">2.82124e-06</wgt>
  <wgt id="47">2.8292e-06</wgt>
  <wgt id="48">2.80548e-06</wgt>
  <wgt id="49">2.83446e-06</wgt>
  <wgt id="50">2.82924e-06</wgt>
  <wgt id="51">2.82145e-06</wgt>
  <wgt id="52">2.82095e-06</wgt>
  <wgt id="53">2.826e-06</wgt>
</rwgt>
</event>
<event>
 11      0 +2.8251000e-06 2.88791900e+02 7.54677100e-03 1.04054200e-01
        2 -1    0    0  503    0 +0.00000000000e+00 +0.00000000000e+00 +6.82396517110e+02  6.82396517110e+02  0.00000000000e+00 0.0000e+00 -1.0000e+00
        2 -1    0    0  501    0 +0.00000000000e+00 +0.00000000000e+00 -1.43479104140e+03  1.43479104140e+03  0.00000000000e+00 0.0000e+00 -1.0000e+00
       24  2    1    2    0    0 -5.52873684055e+01 +1.16971690382e+02 -1.29515647058e+02  1.99857012334e+02  8.01838705093e+01 0.0000e+00 0.0000e+00
        2  1    3    3  504    0 -4.84092196906e+00 +1.46054998846e+01 -6.89775121025e+01  7.06728542528e+01  0.00000000000e+00 0.0000e+00 -1.0000e+00
       -1  1    3    3    0  504 -5.04464464365e+01 +1.02366190498e+02 -6.05381349559e+01  1.29184158081e+02  0.00000000000e+00 0.0000e+00 1.0000e+00
       24  2    1    2    0    0 +3.17809883390e+01 +5.58970956314e+00 -6.33534223369e+02  6.39655565551e+02  8.21727101221e+01 0.0000e+00 0.0000e+00
       12  1    6    6    0    0 -2.21790485004e+01 -1.85411173253e+01 -2.31921878878e+02  2.33716582909e+02  0.00000000000e+00 0.0000e+00 -1.0000e+00
      -11  1    6    6    0    0 +5.39600368394e+01 +2.41308268884e+01 -4.01612344490e+02  4.05938982643e+02  0.00000000000e+00 0.0000e+00 1.0000e+00
       21  1    1    2  503  502 +2.27872128978e+01 +4.16195394966e+01 +1.00552925326e+02  1.11186032986e+02  0.00000000000e+00 0.0000e+00 1.0000e+00
        1  1    1    2  501    0 -3.14987605804e+02 +3.32800304094e+02 +2.11918517918e+02  5.04859081776e+02  0.00000000000e+00 0.0000e+00 -1.0000e+00
        1  1    1    2  502    0 +3.15706772973e+02 -4.96981243536e+02 -3.01816097108e+02  6.61629865862e+02  0.00000000000e+00 0.0000e+00 -1.0000e+00
#  0.1300000e+05  0.1300000e+05  0.4747455e+02  0.1300000e+05  0.1300000e+05
<mgrwt>
<rscale>  2 0.25071317e+03</rscale>
<asrwt>  1 0.47474550e+02</asrwt>
<pdfrwt beam="1">  2        2        2 0.10498408e+00 0.88290165e-01 0.47474550e+02 0.28879192e+03</pdfrwt>
<pdfrwt beam="2">  1        2 0.22073708e+00 0.86702502e+02</pdfrwt>
<totfact> 0.16787260e-01</totfact>
</mgrwt>
<clustering>
<clus scale="   47.475">  1  5  2 -1</clus>
<clus scale="   86.703">  2  4  1 -1</clus>
<clus scale="  152.638">  1  3  2 -1</clus>
<clus scale="  546.395">  2  7  1 -1</clus>
<clus scale="  546.395">  1  3  2 -1</clus>
</clustering>
<rwgt>
  <wgt id="1">4.92258e-06</wgt>
  <wgt id="2">3.27657e-06</wgt>
  <wgt id="3">2.34221e-06</wgt>
  <wgt id="4">4.24432e-06</wgt>
  <wgt id="5">2.8251e-06</wgt>
  <wgt id="6">2.01949e-06</wgt>
  <wgt id="7">3.72455e-06</wgt>
  <wgt id="8">2.47913e-06</wgt>
  <wgt id="9">1.77218e-06</wgt>
  <wgt id="10">3.71683e-06</wgt>
  <wgt id="11">2.8251e-06</wgt>
  <wgt id="12">2.28403e-06</wgt>
  <wgt id="13">2.8251e-06</wgt>
  <wgt id="14">2.828e-06</wgt>
  <wgt id="15">2.82265e-06</wgt>
  <wgt id="16">2.81278e-06</wgt>
  <wgt id="17">2.83877e-06</wgt>
  <wgt id="18">2.8115e-06</wgt>
  <wgt id="19">2.8452e-06</wgt>
  <wgt id="20">2.81435e-06</wgt>
  <wgt id="21">2.83231e-06</wgt>
  <wgt id="22">2.83275e-06</wgt>
  <wgt id="23">2.81418e-06</wgt>
  <wgt id="24">2.86739e-06</wgt>
  <wgt id="25">2.79903e-06</wgt>
  <wgt id="26">2.82478e-06</wgt>
  <wgt id="27">2.82548e-06</wgt>
  <wgt id="28">2.87627e-06</wgt>
  <wgt id="29">2.80659e-06</wgt>
  <wgt id="30">2.83073e-06</wgt>
  <wgt id="31">2.81793e-06</wgt>
  <wgt id="32">2.82805e-06</wgt>
  <wgt id="33">2.82226e-06</wgt>
  <wgt id="34">2.7859e-06</wgt>
  <wgt id="35">2.89753e-06</wgt>
  <wgt id="36">2.84871e-06</wgt>
  <wgt id="37">2.81219e-06</wgt>
  <wgt id="38">2.81324e-06</wgt>
  <wgt id="39">2.83109e-06</wgt>
  <wgt id="40">2.82698e-06</wgt>
  <wgt id="41">2.82359e-06</wgt>
  <wgt id="42">2.84918e-06</wgt>
  <wgt id="43">2.78548e-06</wgt>
  <wgt id="44">2.83309e-06</wgt>
  <wgt id="45">2.82214e-06</wgt>
  <wgt id="46">2.82444e-06</wgt>
  <wgt id="47">2.82565e-06</wgt>
  <wgt id="48">2.81665e-06</wgt>
  <wgt id="49">2.83262e-06</wgt>
  <wgt id="50">2.81592e-06</wgt>
  <wgt id="51">2.83847e-06</wgt>
  <wgt id="52">2.83808e-06</wgt>
  <wgt id="53">2.82172e-06</wgt>
</rwgt>
</event>
<event>
 10      0 +2.8251000e-06 5.90764500e+02 7.54677100e-03 9.68354000e-02
        2 -1    0    0  502    0 +0.00000000000e+00 +0.00000000000e+00 +8.02945281210e+02  8.02945281210e+02  0.00000000000e+00 0.0000e+00 -1.0000e+00
       -1 -1    0    0    0  501 +0.00000000000e+00 +0.00000000000e+00 -1.90383260610e+02  1.90383260610e+02  0.00000000000e+00 0.0000e+00 1.0000e+00
       24  2    1    2    0    0 +3.17371649806e+01 +1.23238406230e+02 +7.63734103396e+01  1.74135120803e+02  9.10779340948e+01 0.0000e+00 0.0000e+00
        4  1    3    3  503    0 -1.51323740430e+01 +7.05356628811e+01 +7.43222149525e+01  1.03576349220e+02  0.00000000000e+00 0.0000e+00 -1.0000e+00
       -3  1    3    3    0  503 +4.68695390235e+01 +5.27027433488e+01 +2.05119538709e+00  7.05587715829e+01  0.00000000000e+00 0.0000e+00 1.0000e+00
       24  2    1    2    0    0 +1.46304700869e+02 -7.45366501224e+01 +8.79035307722e+01  2.02851092874e+02  8.03788370796e+01 0.0000e+00 0.0000e+00
       12  1    6    6    0    0 +3.38652719094e+01 -5.57119052016e+01 +5.17888668858e+01  8.32631956870e+01  0.00000000000e+00 0.0000e+00 -1.0000e+00
      -11  1    6    6    0    0 +1.12439428959e+02 -1.88247449208e+01 +3.61146638864e+01  1.19587897187e+02  0.00000000000e+00 0.0000e+00 1.0000e+00
        3  1    1    2  502    0 +9.87173925763e+01 -5.55789549975e+01 +2.54023498301e+02  2.78140398944e+02  0.00000000000e+00 0.0000e+00 -1.0000e+00
       -4  1    1    2    0  501 -2.76759258425e+02 +6.87719889003e+00 +1.94261581187e+02  3.38201929199e+02  0.00000000000e+00 0.0000e+00 1.0000e+00
#  0.1300000e+05  0.1300000e+05  0.1300000e+05  0.2198476e+03
<mgrwt>
<rscale>  1 0.44084664e+03</rscale>
<asrwt>  1 0.21984761e+03</asrwt>
<pdfrwt beam="1">  1        2 0.12353004e+00 0.18319218e+03</pdfrwt>
<pdfrwt beam="2">  1       -1 0.29289732e-01 0.59076452e+03</pdfrwt>
<totfact> 0.50905342e+00</totfact>
</mgrwt>
<clustering>
<clus scale="  113.749">  3  5 -1 -1</clus>
<clus scale="  183.192">  1  4  2 -1</clus>
<clus scale="  219.848">  3  6 -1 -1</clus>
<clus scale="  590.765">  1  3  2 -1</clus>
</clustering>
<rwgt>
  <wgt id="1">3.53803e-06</wgt>
  <wgt id="2">2.93348e-06</wgt>
  <wgt id="3">2.50795e-06</wgt>
  <wgt id="4">3.40732e-06</wgt>
  <wgt id="5">2.8251e-06</wgt>
  <wgt id="6">2.41529e-06</wgt>
  <wgt id="7">3.25916e-06</wgt>
  <wgt id="8">2.70226e-06</wgt>
  <wgt id="9">2.31027e-06</wgt>
  <wgt id="10">3.47732e-06</wgt>
  <wgt id="11">2.8251e-06</wgt>
  <wgt id="12">2.38183e-06</wgt>
  <wgt id="13">2.8251e-06</wgt>
  <wgt id="14">2.83046e-06</wgt>
  <wgt id="15">2.82088e-06</wgt>
  <wgt id="16">2.83544e-06</wgt>
  <wgt id="17">2.81357e-06</wgt>
  <wgt id="18">2.81243e-06</wgt>
  <wgt id="19">2.84414e-06</wgt>
  <wgt id="20">2.83103e-06</wgt>
  <wgt id="21">2.82123e-06</wgt>
  <wgt id="22">2.83289e-06</wgt>
  <wgt id="23">2.8142e-06</wgt>
  <wgt id="24">2.86673e-06</wgt>
  <wgt id="25">2.79971e-06</wgt>
  <wgt id="26">2.82557e-06</wgt>
  <wgt id="27">2.82467e-06</wgt>
  <wgt id="28">2.85025e-06</wgt>
  <wgt id="29">2.81612e-06</wgt>
  <wgt id="30">2.83088e-06</wgt>
  <wgt id="31">2.81701e-06</wgt>
  <wgt id="32">2.83602e-06</wgt>
  <wgt id="33">2.81477e-06</wgt>
  <wgt id="34">2.8044e-06</wgt>
  <wgt id="35">2.86331e-06</wgt>
  <wgt id="36">2.853e-06</wgt>
  <wgt id="37">2.80877e-06</wgt>
  <wgt id="38">2.82528e-06</wgt>
  <wgt id="39">2.82529e-06</wgt>
  <wgt id="40">2.82028e-06</wgt>
  <wgt id="41">2.83107e-06</wgt>
  <wgt id="42">2.84436e-06</wgt>
  <wgt id="43">2.78346e-06</wgt>
  <wgt id="44">2.83241e-06</wgt>
  <wgt id="45">2.82259e-06</wgt>
  <wgt id="46">2.81795e-06</wgt>
  <wgt id="47">2.83067e-06</wgt>
  <wgt id="48">2.82158e-06</wgt>
  <wgt id="49">2.8272e-06</wgt>
  <wgt id="50">2.82831e-06</wgt>
  <wgt id="51">2.81712e-06</wgt>
  <wgt id="52">2.83543e-06</wgt>
  <wgt id="53">2.8223e-06</wgt>
</rwgt>
</event>
<event>
 11      0 +2.8251000e-06 2.59453100e+02 7.54677100e-03 1.05002800e-01
       -1 -1    0    0    0  501 +0.00000000000e+00 +0.00000000000e+00 +3.55026817150e+02  3.55026817150e+02  0.00000000000e+00 0.0000e+00 1.0000e+00
        2 -1    0    0  503    0 +0.00000000000e+00 +0.00000000000e+00 -2.07421460190e+03  2.07421460190e+03  0.00000000000e+00 0.0000e+00 -1.0000e+00
       24  2    1    2    0    0 -1.46947827589e+02 -8.37532430422e+01 -5.70284330967e+02  6.00771876703e+02  8.42280234754e+01 0.0000e+00 0.0000e+00
        4  1    3    3  504    0 -9.82787413454e+01 -7.64867331652e+01 -4.97947450040e+02  5.13284126339e+02  0.00000000000e+00 0.0000e+00 -1.0000e+00
       -3  1    3    3    0  504 -4.86690862435e+01 -7.26650987709e+00 -7.23368809268e+01  8.74877503642e+01  0.00000000000e+00 0.0000e+00 1.0000e+00
       24  2    1    2    0    0 +9.21480998339e+00 -9.69818842916e+01 +2.09182298796e+01  1.28197542554e+02  8.06637401295e+01 0.0000e+00 0.0000e+00
        4  1    6    6  505    0 -2.66967924666e+01 -7.11298981902e+01 -6.31966518735e+00  7.62372567229e+01  0.00000000000e+00 0.0000e+00 -1.0000e+00
       -3  1    6    6    0  505 +3.59116024500e+01 -2.58519861014e+01 +2.72378950670e+01  5.19602858306e+01  0.00000000000e+00 0.0000e+00 1.0000e+00
       21  1    1    2  503  501 -1.95142664225e+02 +1.69847053087e+00 -6.43832439782e+02  6.72758318208e+02  0.00000000000e+00 0.0000e+00 1.0000e+00
        1  1    1    2  502    0 -2.61177454614e+02 +8.88503339672e+01 -1.11491445666e+02  2.97554007033e+02  0.00000000000e+00 0.0000e+00 -1.0000e+00
       -2  1    1    2    0  502 +5.94053136445e+02 +9.01863228358e+01 -4.14497798215e+02  7.29959674551e+02  0.00000000000e+00 0.0000e+00 1.0000e+00
#  0.1300000e+05  0.1300000e+05  0.2642045e+03  0.1300000e+05  0.1300000e+05
<mgrwt>
<rscale>  3 0.23416966e+03</rscale>
<asrwt>0</asrwt>
<pdfrwt beam="1">  1        2 0.31910994e+00 0.19050485e+03</pdfrwt>
<pdfrwt beam="2">  1       -1 0.54619510e-01 0.12641330e+03</pdfrwt>
<totfact> 0.40377310e-02</totfact>
</mgrwt>
<clustering>
<clus scale="  126.413">  1  4  2 -1</clus>
<clus scale="  190.505">  2  3  1 -1</clus>
<clus scale="  264.204">  2  5  1 -1</clus>
<clus scale="  353.356">  1  7  2 -1</clus>
<clus scale="  353.356">  2  3  1 -1</clus>
</clustering>
<rwgt>
  <wgt id="1">6.22609e-06</wgt>
  <wgt id="2">3.35944e-06</wgt>
  <wgt id="3">2.02154e-06</wgt>
  <wgt id="4">5.23579e-06</wgt>
  <wgt id="5">2.8251e-06</wgt>
  <wgt id="6">1.7e-06</wgt>
  <wgt id="7">4.47282e-06</wgt>
  <wgt id="8">2.41342e-06</wgt>
  <wgt id="9">1.45227e-06</wgt>
  <wgt id="10">2.8251e-06</wgt>
  <wgt id="11">2.8251e-06</wgt>
  <wgt id="12">2.8251e-06</wgt>
  <wgt id="13">2.8251e-06</wgt>
  <wgt id="14">2.83009e-06</wgt>
  <wgt id="15">2.82092e-06</wgt>
  <wgt id="16">2.82934e-06</wgt>
  <wgt id="17">2.81998e-06</wgt>
  <wgt id="18">2.80865e-06</wgt>
  <wgt id="19">2.84937e-06</wgt>
  <wgt id="20">2.84587e-06</wgt>
  <wgt id="21">2.81117e-06</wgt>
  <wgt id="22">2.83749e-06</wgt>
  <wgt id="23">2.80758e-06</wgt>
  <wgt id="24">2.88998e-06</wgt>
  <wgt id="25">2.78558e-06</wgt>
  <wgt id="26">2.8264e-06</wgt>
  <wgt id="27">2.82313e-06</wgt>
  <wgt id="28">2.85175e-06</wgt>
  <wgt id="29">2.81546e-06</wgt>
  <wgt id="30">2.82356e-06</wgt>
  <wgt id="31">2.82634e-06</wgt>
  <wgt id="32">2.83645e-06</wgt>
  <wgt id="33">2.81409e-06</wgt>
  <wgt id="34">2.80215e-06</wgt>
  <wgt id="35">2.86681e-06</wgt>
  <wgt id="36">2.83863e-06</wgt>
  <wgt id="37">2.81499e-06</wgt>
  <wgt id="38">2.84652e-06</wgt>
  <wgt id="39">2.81581e-06</wgt>
  <wgt id="40">2.82316e-06</wgt>
  <wgt id="41">2.82756e-06</wgt>
  <wgt id="42">2.84541e-06</wgt>
  <wgt id="43">2.78034e-06</wgt>
  <wgt id="44">2.83337e-06</wgt>
  <wgt id="45">2.82218e-06</wgt>
  <wgt id="46">2.81984e-06</wgt>
  <wgt id="47">2.82939e-06</wgt>
  <wgt id="48">2.83419e-06</wgt>
  <wgt id="49">2.8249e-06</wgt>
  <wgt id="50">2.83216e-06</wgt>
  <wgt id="51">2.82133e-06</wgt>
  <wgt id="52">2.83382e-06</wgt>
  <wgt id="53">2.82299e-06</wgt>
</rwgt>
</event>
<event>
 11      0 +2.8251000e-06 5.29671500e+02 7.54677100e-03 9.50096700e-02
        2 -1    0    0  503    0 +0.00000000000e+00 +0.00000000000e+00 +8.54808608980e+02  8.54808608980e+02  0.00000000000e+00 0.0000e+00 -1.0000e+00
       -1 -1    0    0    0  501 +0.00000000000e+00 +0.00000000000e+00 -1.04022422680e+03  1.04022422680e+03  0.00000000000e+00 0.0000e+00 1.0000e+00
       24  2    1    2    0    0 -1.24895989153e+02 +1.02584406028e+02 -2.26005804814e+02  2.89094542505e+02  7.98402293938e+01 0.0000e+00 0.0000e+00
       12  1    3    3    0    0 -9.53620034274e+01 +4.57467845610e+01 -1.84817500752e+02  2.12941749264e+02  0.00000000000e+00 0.0000e+00 -1.0000e+00
      -11  1    3    3    0    0 -2.95339857256e+01 +5.68376214669e+01 -4.11883040624e+01  7.61527932409e+01  0.00000000000e+00 0.0000e+00 1.0000e+00
       24  2    1    2    0    0 -4.35040881924e+02 +1.95942805582e+02 +2.64151765920e+02  5.51634637110e+02  8.28882706781e+01 0.0000e+00 0.0000e+00
       12  1    6    6    0    0 -1.94080502571e+02 +5.33326841896e+01 +1.41000549556e+02  2.45749408252e+02  0.00000000000e+00 0.0000e+00 -1.0000e+00
      -11  1    6    6    0    0 -2.40960379353e+02 +1.42610121392e+02 +1.23151216364e+02  3.05885228858e+02  0.00000000000e+00 0.0000e+00 1.0000e+00
       21  1    1    2  503  501 -8.81910887114e+00 -4.83257183386e+01 -1.14589376775e+02  1.24675085738e+02  0.00000000000e+00 0.0000e+00 1.0000e+00
        1  1    1    2  502    0 +6.64642620657e+02 -1.84549013062e+02 -2.61659036571e+02  7.37749010731e+02  0.00000000000e+00 0.0000e+00 -1.0000e+00
       -2  1    1    2    0  502 -9.58866407084e+01 -6.56524802090e+01 +1.52686834420e+02  1.91879559696e+02  0.00000000000e+00 0.0000e+00 1.0000e+00
#  0.1300000e+05  0.1300000e+05  0.4905358e+02  0.1300000e+05  0.1300000e+05
<mgrwt>
<rscale>  2 0.51562383e+03</rscale>
<asrwt>  1 0.49053580e+02</asrwt>
<pdfrwt beam="1">  1        2 0.13150902e+00 0.52967154e+03</pdfrwt>
<pdfrwt beam="2">  2       -1       -1 0.16003450e+00 0.14069032e+00 0.49053580e+02 0.52967154e+03</pdfrwt>
<totfact> 0.18790291e-02</totfact>
</mgrwt>
<clustering>
<clus scale="   49.054">  2  5  1 -1</clus>
<clus scale="  116.910">  3  7 -1 -1</clus>
<clus scale="  475.677">  2  3  1 -1</clus>
<clus scale="  523.531">  2  6  1 -1</clus>
<clus scale="  529.672">  1  3  2 -1</clus>
</clustering>
<rwgt>
  <wgt id="1">4.80238e-06</wgt>
  <wgt id="2">3.32887e-06</wgt>
  <wgt id="3">2.44686e-06</wgt>
  <wgt id="4">4.07563e-06</wgt>
  <wgt id="5">2.8251e-06</wgt>
  <wgt id="6">2.07657e-06</wgt>
  <wgt id="7">3.52044e-06</wgt>
  <wgt id="8">2.44026e-06</wgt>
  <wgt id="9">1.7937e-06</wgt>
  <wgt id="10">3.70978e-06</wgt>
  <wgt id="11">2.8251e-06</wgt>
  <wgt id="12">2.28655e-06</wgt>
  <wgt id="13">2.8251e-06</wgt>
  <wgt id="14">2.82954e-06</wgt>
  <wgt id="15">2.82144e-06</wgt>
  <wgt id="16">2.83892e-06</wgt>
  <wgt id="17">2.80954e-06</wgt>
  <wgt id="18">2.80968e-06</wgt>
  <wgt id="19">2.84872e-06</wgt>
  <wgt id="20">2.84964e-06</wgt>
  <wgt id="21">2.80858e-06</wgt>
  <wgt id="22">2.83876e-06</wgt>
  <wgt id="23">2.80639e-06</wgt>
  <wgt id="24">2.8962e-06</wgt>
  <wgt id="25">2.78171e-06</wgt>
  <wgt id="26">2.82483e-06</wgt>
  <wgt id="27">2.82524e-06</wgt>
  <wgt id="28">2.86238e-06</wgt>
  <wgt id="29">2.81194e-06</wgt>
  <wgt id="30">2.80745e-06</wgt>
  <wgt id="31">2.84754e-06</wgt>
  <wgt id="32">2.84006e-06</wgt>
  <wgt id="33">2.81102e-06</wgt>
  <wgt id="34">2.82659e-06</wgt>
  <wgt id="35">2.82423e-06</wgt>
  <wgt id="36">2.79108e-06</wgt>
  <wgt id="37">2.84412e-06</wgt>
  <wgt id="38">2.94184e-06</wgt>
  <wgt id="39">2.77201e-06</wgt>
  <wgt id="40">2.81769e-06</wgt>
  <wgt id="41">2.83351e-06</wgt>
  <wgt id="42">2.82373e-06</wgt>
  <wgt id="43">2.81215e-06</wgt>
  <wgt id="44">2.88594e-06</wgt>
  <wgt id="45">2.80001e-06</wgt>
  <wgt id="46">2.87447e-06</wgt>
  <wgt id="47">2.79361e-06</wgt>
  <wgt id="48">2.82971e-06</wgt>
  <wgt id="49">2.82084e-06</wgt>
  <wgt id="50">2.81209e-06</wgt>
  <wgt id="51">2.8509e-06</wgt>
  <wgt id="52">2.78622e-06</wgt>
  <wgt id="53">2.83616e-06</wgt>
</rwgt>
</event>
<event>
 11      0 +2.8251000e-06 1.92209400e+02 7.54677100e-03 1.08652800e-01
       21 -1    0    0  501  503 +0.00000000000e+00 +0.00000000000e+00 +4.00209554810e+02  4.00209554810e+02  0.00000000000e+00 0.0000e+00 -1.0000e+00
        2 -1    0    0  502    0 +0.00000000000e+00 +0.00000000000e+00 -3.41659059810e+02  3.41659059810e+02  0.00000000000e+00 0.0000e+00 -1.0000e+00
       24  2    1    2    0    0 -4.52480186381e+01 +9.47321875672e+01 +9.95198299309e+01  1.63639849189e+02  7.64998898120e+01 0.0000e+00 0.0000e+00
       12  1    3    3    0    0 -3.41201080969e+01 +7.97184910328e+01 +3.01634920147e+01  9.18098896613e+01  0.00000000000e+00 0.0000e+00 -1.0000e+00
      -11  1    3    3    0    0 -1.11279105412e+01 +1.50136965343e+01 +6.93563379161e+01  7.18299595279e+01  0.00000000000e+00 0.0000e+00 1.0000e+00
       24  2    1    2    0    0 -5.93622529254e+01 +1.87289080270e+01 -1.79885757128e+02  2.06453638474e+02  7.99347868778e+01 0.0000e+00 0.0000e+00
       12  1    6    6    0    0 -6.16112244472e+01 +2.35541772728e+01 -1.86582664861e+02  1.97898542368e+02  0.00000000000e+00 0.0000e+00 -1.0000e+00
      -11  1    6    6    0    0 +2.24897152183e+00 -4.82526924580e+00 +6.69690773249e+00  8.55509610571e+00  0.00000000000e+00 0.0000e+00 1.0000e+00
        1  1    1    2  501    0 +2.04640271501e+01 -5.04566964868e+01 -7.95670242235e+01  9.64135155014e+01  0.00000000000e+00 0.0000e+00 -1.0000e+00
        3  1    1    2  502    0 +2.48914287184e+01 -5.04355999084e+01 +8.58156092190e+00  5.68944298646e+01  0.00000000000e+00 0.0000e+00 -1.0000e+00
       -4  1    1    2    0  503 +5.92548156949e+01 -1.25687991990e+01 +2.09901885499e+02  2.18467181591e+02  0.00000000000e+00 0.0000e+00 1.0000e+00
#  0.1300000e+05  0.1300000e+05  0.1300000e+05  0.1300000e+05  0.6057316e+02
<mgrwt>
<rscale>  2 0.18210595e+03</rscale>
<asrwt>  1 0.60573162e+02</asrwt>
<pdfrwt beam="1">  2       21        4 0.61570701e-01 0.27847454e-01 0.60573162e+02 0.19220945e+03</pdfrwt>
<pdfrwt beam="2">  1        2 0.52562932e-01 0.15487182e+03</pdfrwt>
<totfact> 0.54414037e+00</totfact>
</mgrwt>
<clustering>
<clus scale="   54.140">  4  5 -1 -1</clus>
<clus scale="   55.743">  3  6 -1 -1</clus>
<clus scale="   60.573">  1  7  2 -1</clus>
<clus scale="  154.872">  2  4  1 -1</clus>
<clus scale="  192.209">  1  3  2 -1</clus>
</clustering>
<rwgt>
  <wgt id="1">4.01029e-06</wgt>
  <wgt id="2">2.61375e-06</wgt>
  <wgt id="3">1.84228e-06</wgt>
  <wgt id="4">4.33456e-06</wgt>
  <wgt id="5">2.8251e-06</wgt>
  <wgt id="6">1.99124e-06</wgt>
  <wgt id="7">4.60302e-06</wgt>
  <wgt id="8">3.00007e-06</wgt>
  <wgt id="9">2.11457e-06</wgt>
  <wgt id="10">3.66717e-06</wgt>
  <wgt id="11">2.8251e-06</wgt>
  <wgt id="12">2.30243e-06</wgt>
  <wgt id="13">2.8251e-06</wgt>
  <wgt id="14">2.8326e-06</wgt>
  <wgt id="15">2.81874e-06</wgt>
  <wgt id="16">2.82898e-06</wgt>
  <wgt id="17">2.82079e-06</wgt>
  <wgt id="18">2.82007e-06</wgt>
  <wgt id="19">2.83237e-06</wgt>
  <wgt id="20">2.82007e-06</wgt>
  <wgt id="21">2.82844e-06</wgt>
  <wgt id="22">2.82576e-06</wgt>
  <wgt id="23">2.82387e-06</wgt>
  <wgt id="24">2.82925e-06</wgt>
  <wgt id="25">2.82238e-06</wgt>
  <wgt id="26">2.82586e-06</wgt>
  <wgt id="27">2.8243e-06</wgt>
  <wgt id="28">2.83786e-06</wgt>
  <wgt id="29">2.82035e-06</wgt>
  <wgt id="30">2.81599e-06</wgt>
  <wgt id="31">2.83559e-06</wgt>
  <wgt id="32">2.82796e-06</wgt>
  <wgt id="33">2.82187e-06</wgt>
  <wgt id="34">2.82917e-06</wgt>
  <wgt id="35">2.81886e-06</wgt>
  <wgt id="36">2.81293e-06</wgt>
  <wgt id="37">2.83396e-06</wgt>
  <wgt id="38">2.81462e-06</wgt>
  <wgt id="39">2.83003e-06</wgt>
  <wgt id="40">2.81944e-06</wgt>
  <wgt id="41">2.83015e-06</wgt>
  <wgt id="42">2.82251e-06</wgt>
  <wgt id="43">2.82584e-06</wgt>
  <wgt id="44">2.82862e-06</wgt>
  <wgt id="45">2.82365e-06</wgt>
  <wgt id="46">2.82767e-06</wgt>
  <wgt id="47">2.82372e-06</wgt>
  <wgt id="48">2.80668e-06</wgt>
  <wgt id="49">2.83349e-06</wgt>
  <wgt id="50">2.8514e-06</wgt>
  <wgt id="51">2.80123e-06</wgt>
  <wgt id="52">2.82377e-06</wgt>
  <wgt id="53">2.82537e-06</wgt>
</rwgt>
</event>
<event>
 10      0 +2.8251000e-06 3.66993500e+02 7.54677100e-03 1.03174900e-01
        2 -1    0    0  501    0 +0.00000000000e+00 +0.00000000000e+00 +7.11341548790e+02  7.11341548790e+02  0.00000000000e+00 0.0000e+00 -1.0000e+00
        2 -1    0    0  502    0 +0.00000000000e+00 +0.00000000000e+00 -2.18029939490e+03  2.18029939490e+03  0.00000000000e+00 0.0000e+00 -1.0000e+00
       24  2    1    2    0    0 +3.61533372849e+01 +7.05058745689e+01 -2.00118158034e+03  2.00445633485e+03  8.27002943708e+01 0.0000e+00 0.0000e+00
        4  1    3    3  503    0 -8.06526868624e-01 +4.50325749638e+01 -1.62165153967e+03  1.62227688740e+03  0.00000000000e+00 0.0000e+00 -1.0000e+00
       -3  1    3    3    0  503 +3.69598641535e+01 +2.54732996051e+01 -3.79530040672e+02  3.82179447449e+02  0.00000000000e+00 0.0000e+00 1.0000e+00
       24  2    1    2    0    0 -6.51354129191e+01 -2.28310487702e+00 +1.70878494660e+02  2.00885808394e+02  8.31132570238e+01 0.0000e+00 0.0000e+00
       16  1    6    6    0    0 -7.94257974850e+01 +5.92816394414e+00 +1.65296972316e+02  1.83484848123e+02  0.00000000000e+00 0.0000e+00 -1.0000e+00
      -15  1    6    6    0    0 +1.42903845659e+01 -8.21126882116e+00 +5.58152234364e+00  1.74009602714e+01  1.77700000000e+00 0.0000e+00 1.0000e+00
        1  1    1    2  501    0 +3.04236506846e+01 +8.67754455824e+01 -1.36666624442e+02  1.64722016480e+02  0.00000000000e+00 0.0000e+00 -1.0000e+00
        1  1    1    2  502    0 -1.44157505037e+00 -1.54998215274e+02 +4.98011864010e+02  5.21576783966e+02  0.00000000000e+00 0.0000e+00 -1.0000e+00
#  0.1300000e+05  0.1300000e+05  0.1300000e+05  0.1300000e+05
<mgrwt>
<rscale>  2 0.26740697e+03</rscale>
<asrwt>0</asrwt>
<pdfrwt beam="1">  1        2 0.10943716e+00 0.10344646e+03</pdfrwt>
<pdfrwt beam="2">  1        2 0.33543068e+00 0.36699354e+03</pdfrwt>
<totfact> 0.41464887e-01</totfact>
</mgrwt>
<clustering>
<clus scale="   92.300">  3  5 -1 -1</clus>
<clus scale="  103.446">  1  4  2 -1</clus>
<clus scale="  170.042">  1  6  2 -1</clus>
<clus scale="  366.994">  1  3  2 -1</clus>
</clustering>
<rwgt>
  <wgt id="1">5.14158e-06</wgt>
  <wgt id="2">3.43586e-06</wgt>
  <wgt id="3">2.46271e-06</wgt>
  <wgt id="4">4.2276e-06</wgt>
  <wgt id="5">2.8251e-06</wgt>
  <wgt id="6">2.02493e-06</wgt>
  <wgt id="7">3.55835e-06</wgt>
  <wgt id="8">2.37787e-06</wgt>
  <wgt id="9">1.70438e-06</wgt>
  <wgt id="10">2.8251e-06</wgt>
  <wgt id="11">2.8251e-06</wgt>
  <wgt id="12">2.8251e-06</wgt>
  <wgt id="13">2.8251e-06</wgt>
  <wgt id="14">2.82819e-06</wgt>
  <wgt id="15">2.8226e-06</wgt>
  <wgt id="16">2.80893e-06</wgt>
  <wgt id="17">2.84321e-06</wgt>
  <wgt id="18">2.81039e-06</wgt>
  <wgt id="19">2.84699e-06</wgt>
  <wgt id="20">2.81589e-06</wgt>
  <wgt id="21">2.8313e-06</wgt>
  <wgt id="22">2.83367e-06</wgt>
  <wgt id="23">2.81291e-06</wgt>
  <wgt id="24">2.87215e-06</wgt>
  <wgt id="25">2.79622e-06</wgt>
  <wgt id="26">2.82507e-06</wgt>
  <wgt id="27">2.82525e-06</wgt>
  <wgt id="28">2.86797e-06</wgt>
  <wgt id="29">2.80951e-06</wgt>
  <wgt id="30">2.82993e-06</wgt>
  <wgt id="31">2.81902e-06</wgt>
  <wgt id="32">2.82395e-06</wgt>
  <wgt id="33">2.82618e-06</wgt>
  <wgt id="34">2.78319e-06</wgt>
  <wgt id="35">2.90268e-06</wgt>
  <wgt id="36">2.8446e-06</wgt>
  <wgt id="37">2.81573e-06</wgt>
  <wgt id="38">2.81542e-06</wgt>
  <wgt id="39">2.83049e-06</wgt>
  <wgt id="40">2.83318e-06</wgt>
  <wgt id="41">2.81727e-06</wgt>
  <wgt id="42">2.84844e-06</wgt>
  <wgt id="43">2.78706e-06</wgt>
  <wgt id="44">2.83431e-06</wgt>
  <wgt id="45">2.82161e-06</wgt>
  <wgt id="46">2.8244e-06</wgt>
  <wgt id="47">2.82569e-06</wgt>
  <wgt id="48">2.82306e-06</wgt>
  <wgt id="49">2.83097e-06</wgt>
  <wgt id="50">2.81663e-06</wgt>
  <wgt id="51">2.8382e-06</wgt>
  <wgt id="52">2.83882e-06</wgt>
  <wgt id="53">2.82181e-06</wgt>
</rwgt>
</event>
<event>
 11      0 +2.8251000e-06 7.36467900e+02 7.54677100e-03 9.68376000e-02
        2 -1    0    0  501    0 +0.00000000000e+00 +0.00000000000e+00 +3.06040604080e+03  3.06040604080e+03  0.00000000000e+00 0.0000e+00 -1.0000e+00
        2 -1    0    0  503    0 +0.00000000000e+00 +0.00000000000e+00 -8.66938843820e+02  8.66938843820e+02  0.00000000000e+00 0.0000e+00 -1.0000e+00
       24  2    1    2    0    0 +1.60442253458e+01 -5.47425403410e+02 +4.42663723286e+02  7.08770376723e+02  8.04505160980e+01 0.0000e+00 0.0000e+00
       14  1    3    3    0    0 +1.77684941511e+01 -5.40603124739e+02 +4.19337509584e+02  6.84405877244e+02  0.00000000000e+00 0.0000e+00 -1.0000e+00
      -13  1    3    3    0    0 -1.72426880527e+00 -6.82227867105e+00 +2.33262137016e+01  2.43644994784e+01  0.00000000000e+00 0.0000e+00 1.0000e+00
       24  2    1    2    0    0 -3.46830000130e+01 -3.54704694632e+01 +1.93016549947e+03  1.93248833138e+03  8.06921983621e+01 0.0000e+00 0.0000e+00
        4  1    6    6  504    0 -1.10143152170e+01 -4.90977735750e+01 +6.20100859718e+02  6.22139038104e+02  0.00000000000e+00 0.0000e+00 -1.0000e+00
       -3  1    6    6    0  504 -2.36686847961e+01 +1.36273041119e+01 +1.31006463975e+03  1.31034929327e+03  0.00000000000e+00 0.0000e+00 1.0000e+00
       21  1    1    2  503  502 -2.33807528225e+01 -7.75520464410e+01 -9.29090698699e+01  1.23260191359e+02  0.00000000000e+00 0.0000e+00 1.0000e+00
        1  1    1    2  501    0 +1.51422862217e+02 +8.74565927386e+02 +4.51367423940e+01  8.88724799958e+02  0.00000000000e+00 0.0000e+00 -1.0000e+00
        1  1    1    2  502    0 -1.09403334728e+02 -2.14118008072e+02 -1.31589698300e+02  2.74101185201e+02  0.00000000000e+00 0.0000e+00 -1.0000e+00
#  0.1300000e+05  0.1300000e+05  0.4018367e+02  0.1300000e+05  0.1300000e+05
<mgrwt>
<rscale>  2 0.44076530e+03</rscale>
<asrwt>  1 0.40183675e+02</asrwt>
<pdfrwt beam="1">  1        2 0.47083170e+00 0.94486149e+02</pdfrwt>
<pdfrwt beam="2">  1        2 0.13337521e+00 0.73646787e+03</pdfrwt>
<totfact> 0.13824769e-02</totfact>
</mgrwt>
<clustering>
<clus scale="   40.184">  5  7 -1 -1</clus>
<clus scale="   94.486">  1  4  2 -1</clus>
<clus scale="  331.367">  1  5  2 -1</clus>
<clus scale="  732.064">  1  6  2 -1</clus>
<clus scale="  736.468">  1  3  2 -1</clus>
</clustering>
<rwgt>
  <wgt id="1">5.5923e-06</wgt>
  <wgt id="2">3.8444e-06</wgt>
  <wgt id="3">2.80994e-06</wgt>
  <wgt id="4">4.10956e-06</wgt>
  <wgt id="5">2.8251e-06</wgt>
  <wgt id="6">2.06491e-06</wgt>
  <wgt id="7">3.17823e-06</wgt>
  <wgt id="8">2.18486e-06</wgt>
  <wgt id="9">1.59695e-06</wgt>
  <wgt id="10">3.7539e-06</wgt>
  <wgt id="11">2.8251e-06</wgt>
  <wgt id="12">2.27059e-06</wgt>
  <wgt id="13">2.8251e-06</wgt>
  <wgt id="14">2.82837e-06</wgt>
  <wgt id="15">2.82232e-06</wgt>
  <wgt id="16">2.80358e-06</wgt>
  <wgt id="17">2.84911e-06</wgt>
  <wgt id="18">2.8088e-06</wgt>
  <wgt id="19">2.84921e-06</wgt>
  <wgt id="20">2.81579e-06</wgt>
  <wgt id="21">2.83129e-06</wgt>
  <wgt id="22">2.83464e-06</wgt>
  <wgt id="23">2.81142e-06</wgt>
  <wgt id="24">2.87757e-06</wgt>
  <wgt id="25">2.79284e-06</wgt>
  <wgt id="26">2.82482e-06</wgt>
  <wgt id="27">2.82532e-06</wgt>
  <wgt id="28">2.85427e-06</wgt>
  <wgt id="29">2.81417e-06</wgt>
  <wgt id="30">2.82768e-06</wgt>
  <wgt id="31">2.82181e-06</wgt>
  <wgt id="32">2.81774e-06</wgt>
  <wgt id="33">2.83214e-06</wgt>
  <wgt id="34">2.78325e-06</wgt>
  <wgt id="35">2.90248e-06</wgt>
  <wgt id="36">2.85314e-06</wgt>
  <wgt id="37">2.80978e-06</wgt>
  <wgt id="38">2.81273e-06</wgt>
  <wgt id="39">2.83163e-06</wgt>
  <wgt id="40">2.84093e-06</wgt>
  <wgt id="41">2.80932e-06</wgt>
  <wgt id="42">2.84791e-06</wgt>
  <wgt id="43">2.7888e-06</wgt>
  <wgt id="44">2.83503e-06</wgt>
  <wgt id="45">2.82126e-06</wgt>
  <wgt id="46">2.82483e-06</wgt>
  <wgt id="47">2.82527e-06</wgt>
  <wgt id="48">2.82934e-06</wgt>
  <wgt id="49">2.82983e-06</wgt>
  <wgt id="50">2.81581e-06</wgt>
  <wgt id="51">2.83973e-06</wgt>
  <wgt id="52">2.84011e-06</wgt>
  <wgt id="53">2.82161e-06</wgt>
</rwgt>
</event>
<event>
 11      0 +2.8251000e-06 3.14389800e+02 7.54677100e-03 1.01458400e-01
        2 -1    0    0  502    0 +0.00000000000e+00 +0.00000000000e+00 +2.51057375560e+03  2.51057375560e+03  0.00000000000e+00 0.0000e+00 -1.0000e+00
        2 -1    0    0  503    0 +0.00000000000e+00 +0.00000000000e+00 -8.18794880370e+02  8.18794880370e+02  0.00000000000e+00 0.0000e+00 -1.0000e+00
       24  2    1    2    0    0 -1.48642439834e+02 +9.99322361390e+01 +1.38876669799e+03  1.40346706048e+03  9.46880228274e+01 0.0000e+00 0.0000e+00
       16  1    3    3    0    0 -8.68979043908e+01 +1.09560700535e+02 +9.92662333015e+02  1.00246361544e+03  0.00000000000e+00 0.0000e+00 -1.0000e+00
      -15  1    3    3    0    0 -6.17445354436e+01 -9.62846439627e+00 +3.96104364979e+02  4.01003445046e+02  1.77700000000e+00 0.0000e+00 1.0000e+00
       24  2    1    2    0    0 +1.65361486936e+02 +1.33144269999e+02 -3.10162535854e+02  3.84457140360e+02  8.08373436667e+01 0.0000e+00 0.0000e+00
       12  1    6    6    0    0 +9.90859306502e+01 +2.97575700159e+01 -1.58892601153e+02  1.89605889485e+02  0.00000000000e+00 0.0000e+00 -1.0000e+00
      -11  1    6    6    0    0 +6.62755562857e+01 +1.03386699984e+02 -1.51269934701e+02  1.94851250876e+02  0.00000000000e+00 0.0000e+00 1.0000e+00
       21  1    1    2  503  501 -5.73055186935e+01 +5.55861233132e+01 -5.62556004520e+01  9.76648972760e+01  0.00000000000e+00 0.0000e+00 1.0000e+00
        1  1    1    2  501    0 -1.87126454256e+02 -4.39751544967e+02 +9.42944623226e+02  1.05713872962e+03  0.00000000000e+00 0.0000e+00 -1.0000e+00
        1  1    1    2  502    0 +2.27712925848e+02 +1.51088915515e+02 -2.73514309684e+02  3.86640808234e+02  0.00000000000e+00 0.0000e+00 -1.0000e+00
#  0.1300000e+05  0.1300000e+05  0.7991387e+02  0.1300000e+05  0.1300000e+05
<mgrwt>
<rscale>  2 0.30426263e+03</rscale>
<asrwt>  1 0.79913868e+02</asrwt>
<pdfrwt beam="1">  1        2 0.38624212e+00 0.19757834e+03</pdfrwt>
<pdfrwt beam="2">  2        2        2 0.12596844e+00 0.11306635e+00 0.79913868e+02 0.31438978e+03</pdfrwt>
<totfact> 0.29491834e-02</totfact>
</mgrwt>
<clustering>
<clus scale="   79.914">  2  5  1 -1</clus>
<clus scale="  197.578">  1  3  2 -1</clus>
<clus scale="  225.226">  2  4  1 -1</clus>
<clus scale="  438.852">  1  6  2 -1</clus>
<clus scale="  438.852">  1  3  2 -1</clus>
</clustering>
<rwgt>
  <wgt id="1">5.2956e-06</wgt>
  <wgt id="2">3.5668e-06</wgt>
  <wgt id="3">2.57011e-06</wgt>
  <wgt id="4">4.1944e-06</wgt>
  <wgt id="5">2.8251e-06</wgt>
  <wgt id="6">2.03566e-06</wgt>
  <wgt id="7">3.43335e-06</wgt>
  <wgt id="8">2.3125e-06</wgt>
  <wgt id="9">1.66631e-06</wgt>
  <wgt id="10">3.61748e-06</wgt>
  <wgt id="11">2.8251e-06</wgt>
  <wgt id="12">2.32189e-06</wgt>
  <wgt id="13">2.8251e-06</wgt>
  <wgt id="14">2.82823e-06</wgt>
  <wgt id="15">2.82242e-06</wgt>
  <wgt id="16">2.80586e-06</wgt>
  <wgt id="17">2.84651e-06</wgt>
  <wgt id="18">2.80976e-06</wgt>
  <wgt id="19">2.84783e-06</wgt>
  <wgt id="20">2.8162e-06</wgt>
  <wgt id="21">2.83102e-06</wgt>
  <wgt id="22">2.83417e-06</wgt>
  <wgt id="23">2.81218e-06</wgt>
  <wgt id="24">2.8746e-06</wgt>
  <wgt id="25">2.79467e-06</wgt>
  <wgt id="26">2.82517e-06</wgt>
  <wgt id="27">2.82498e-06</wgt>
  <wgt id="28">2.8648e-06</wgt>
  <wgt id="29">2.81057e-06</wgt>
  <wgt id="30">2.8293e-06</wgt>
  <wgt id="31">2.81973e-06</wgt>
  <wgt id="32">2.82167e-06</wgt>
  <wgt id="33">2.82837e-06</wgt>
  <wgt id="34">2.78245e-06</wgt>
  <wgt id="35">2.90407e-06</wgt>
  <wgt id="36">2.84783e-06</wgt>
  <wgt id="37">2.81338e-06</wgt>
  <wgt id="38">2.81419e-06</wgt>
  <wgt id="39">2.83107e-06</wgt>
  <wgt id="40">2.83584e-06</wgt>
  <wgt id="41">2.8145e-06</wgt>
  <wgt id="42">2.84857e-06</wgt>
  <wgt id="43">2.78756e-06</wgt>
  <wgt id="44">2.83429e-06</wgt>
  <wgt id="45">2.82167e-06</wgt>
  <wgt id="46">2.8242e-06</wgt>
  <wgt id="47">2.8257e-06</wgt>
  <wgt id="48">2.82831e-06</wgt>
  <wgt id="49">2.82931e-06</wgt>
  <wgt id="50">2.81709e-06</wgt>
  <wgt id="51">2.83814e-06</wgt>
  <wgt id="52">2.8408e-06</wgt>
  <wgt id="53">2.82133e-06</wgt>
</rwgt>
</event>
<event>
 10      0 +2.8251000e-06 4.05212000e+02 7.54677100e-03 1.03019800e-01
       -1 -1    0    0    0  501 +0.00000000000e+00 +0.00000000000e+00 +6.49898948750e+02  6.49898948750e+02  0.00000000000e+00 0.0000e+00 1.0000e+00
       -3 -1    0    0    0  502 +0.00000000000e+00 +0.00000000000e+00 -3.57024857680e+02  3.57024857680e+02  0.00000000000e+00 0.0000e+00 1.0000e+00
       24  2    1    2    0    0 +2.13347835254e+02 -1.02354115884e+02 +5.19660956925e+01  2.55448493052e+02  8.09925530841e+01 0.0000e+00 0.0000e+00
        2  1    3    3  503    0 +1.17241391843e+02 -4.55924919129e+01 +6.74929012758e+01  1.42756824715e+02  0.00000000000e+00 0.0000e+00 -1.0000e+00
       -1  1    3    3    0  503 +9.61064434115e+01 -5.67616239712e+01 -1.55268055833e+01  1.12691668337e+02  0.00000000000e+00 0.0000e+00 1.0000e+00
       24  2    1    2    0    0 +2.65121845445e+00 +7.10247280348e-01 -1.24676573590e+02  1.48250437813e+02  8.01648981725e+01 0.0000e+00 0.0000e+00
        2  1    6    6  504    0 +2.59056152649e+01 -1.87967348369e+01 -1.67250988448e+01  3.61129765341e+01  0.00000000000e+00 0.0000e+00 -1.0000e+00
       -1  1    6    6    0  504 -2.32543968105e+01 +1.95069821172e+01 -1.07951474745e+02  1.12137461278e+02  0.00000000000e+00 0.0000e+00 1.0000e+00
       -2  1    1    2    0  502 +4.81375838921e+01 -1.19319530313e+02 +1.46920983865e+02  1.95295040380e+02  0.00000000000e+00 0.0000e+00 1.0000e+00
       -4  1    1    2    0  501 -2.64136637601e+02 +2.20963398917e+02 +2.18663585102e+02  4.07929835185e+02  0.00000000000e+00 0.0000e+00 1.0000e+00
#  0.1300000e+05  0.1300000e+05  0.1300000e+05  0.1300000e+05
<mgrwt>
<rscale>  2 0.27049707e+03</rscale>
<asrwt>0</asrwt>
<pdfrwt beam="1">  1       -1 0.99984454e-01 0.40521202e+03</pdfrwt>
<pdfrwt beam="2">  1       -3 0.54926901e-01 0.80464311e+02</pdfrwt>
<totfact> 0.27890943e-01</totfact>
</mgrwt>
<clustering>
<clus scale="   80.464">  2  4  1 -1</clus>
<clus scale="  128.994">  3  5 -1 -1</clus>
<clus scale="  343.653">  2  6  1 -1</clus>
<clus scale="  405.212">  1  3  2 -1</clus>
</clustering>
<rwgt>
  <wgt id="1">4.39768e-06</wgt>
  <wgt id="2">2.9408e-06</wgt>
  <wgt id="3">2.10887e-06</wgt>
  <wgt id="4">4.22465e-06</wgt>
  <wgt id="5">2.8251e-06</wgt>
  <wgt id="6">2.0259e-06</wgt>
  <wgt id="7">3.9641e-06</wgt>
  <wgt id="8">2.65087e-06</wgt>
  <wgt id="9">1.90095e-06</wgt>
  <wgt id="10">2.8251e-06</wgt>
  <wgt id="11">2.8251e-06</wgt>
  <wgt id="12">2.8251e-06</wgt>
  <wgt id="13">2.8251e-06</wgt>
  <wgt id="14">2.83498e-06</wgt>
  <wgt id="15">2.81722e-06</wgt>
  <wgt id="16">2.81314e-06</wgt>
  <wgt id="17">2.83844e-06</wgt>
  <wgt id="18">2.85192e-06</wgt>
  <wgt id="19">2.7857e-06</wgt>
  <wgt id="20">2.83152e-06</wgt>
  <wgt id="21">2.82073e-06</wgt>
  <wgt id="22">2.86905e-06</wgt>
  <wgt id="23">2.76346e-06</wgt>
  <wgt id="24">2.84347e-06</wgt>
  <wgt id="25">2.81376e-06</wgt>
  <wgt id="26">2.82419e-06</wgt>
  <wgt id="27">2.82697e-06</wgt>
  <wgt id="28">2.83465e-06</wgt>
  <wgt id="29">2.82195e-06</wgt>
  <wgt id="30">2.81521e-06</wgt>
  <wgt id="31">2.83666e-06</wgt>
  <wgt id="32">2.83522e-06</wgt>
  <wgt id="33">2.81548e-06</wgt>
  <wgt id="34">2.82307e-06</wgt>
  <wgt id="35">2.8307e-06</wgt>
  <wgt id="36">2.79859e-06</wgt>
  <wgt id="37">2.83638e-06</wgt>
  <wgt id="38">2.87386e-06</wgt>
  <wgt id="39">2.80287e-06</wgt>
  <wgt id="40">2.81979e-06</wgt>
  <wgt id="41">2.83241e-06</wgt>
  <wgt id="42">2.82292e-06</wgt>
  <wgt id="43">2.81215e-06</wgt>
  <wgt id="44">2.82231e-06</wgt>
  <wgt id="45">2.82587e-06</wgt>
  <wgt id="46">2.86592e-06</wgt>
  <wgt id="47">2.79517e-06</wgt>
  <wgt id="48">2.81125e-06</wgt>
  <wgt id="49">2.83384e-06</wgt>
  <wgt id="50">2.84235e-06</wgt>
  <wgt id="51">2.81647e-06</wgt>
  <wgt id="52">2.76167e-06</wgt>
  <wgt id="53">2.88456e-06</wgt>
</rwgt>
</event>
<event>
 10      0 +2.8251000e-06 1.87566200e+02 7.54677100e-03 1.08567800e-01
       -3 -1    0    0    0  501 +0.00000000000e+00 +0.00000000000e+00 +3.15839320540e+02  3.15839320540e+02  0.00000000000e+00 0.0000e+00 1.0000e+00
        2 -1    0    0  501    0 +0.00000000000e+00 +0.00000000000e+00 -1.20696877360e+02  1.20696877360e+02  0.00000000000e+00 0.0000e+00 -1.0000e+00
       24  2    1    2    0    0 +1.53093735890e+01 -7.01839344086e+01 +1.35768229685e+02  1.73127230422e+02  7.98740518132e+01 0.0000e+00 0.0000e+00
       12  1    3    3    0    0 -1.26763502118e+01 -1.05853326795e+01 -5.38685582735e+00  1.73711639890e+01  0.00000000000e+00 0.0000e+00 -1.0000e+00
      -11  1    3    3    0    0 +2.79857238008e+01 -5.95986017291e+01 +1.41155085512e+02  1.55756066433e+02  0.00000000000e+00 0.0000e+00 1.0000e+00
       24  2    1    2    0    0 -8.15177604871e-01 +4.34326852676e+01 -3.04627854885e+01  9.48744380365e+01  7.86518596661e+01 0.0000e+00 0.0000e+00
       12  1    6    6    0    0 +2.09779781753e+01 +4.73536583972e+01 +6.07831540777e+00  5.21477751214e+01  0.00000000000e+00 0.0000e+00 -1.0000e+00
      -11  1    6    6    0    0 -2.17931557802e+01 -3.92097312959e+00 -3.65411008963e+01  4.27266629150e+01  0.00000000000e+00 0.0000e+00 1.0000e+00
        1  1    1    2  502    0 -3.02948128492e+01 -5.28576702319e+01 +4.56072553282e+01  7.61034212535e+01  0.00000000000e+00 0.0000e+00 -1.0000e+00
       -4  1    1    2    0  502 +1.58006168651e+01 +7.96089193729e+01 +4.42297436554e+01  9.24311081880e+01  0.00000000000e+00 0.0000e+00 1.0000e+00
#  0.1300000e+05  0.1300000e+05  0.1300000e+05  0.1300000e+05
<mgrwt>
<rscale>  2 0.18313716e+03</rscale>
<asrwt>0</asrwt>
<pdfrwt beam="1">  1        2 0.18568750e-01 0.17046770e+03</pdfrwt>
<pdfrwt beam="2">  1       -3 0.48590665e-01 0.18756621e+03</pdfrwt>
<totfact> 0.12622592e+01</totfact>
</mgrwt>
<clustering>
<clus scale="   60.567">  3  5 -1 -1</clus>
<clus scale="   81.375">  4  6 -1 -1</clus>
<clus scale="  170.468">  2  3  1 -1</clus>
<clus scale="  187.566">  2  3  1 -1</clus>
</clustering>
<rwgt>
  <wgt id="1">3.98052e-06</wgt>
  <wgt id="2">2.59536e-06</wgt>
  <wgt id="3">1.82979e-06</wgt>
  <wgt id="4">4.33288e-06</wgt>
  <wgt id="5">2.8251e-06</wgt>
  <wgt id="6">1.99176e-06</wgt>
  <wgt id="7">4.51777e-06</wgt>
  <wgt id="8">2.94566e-06</wgt>
  <wgt id="9">2.07676e-06</wgt>
  <wgt id="10">2.8251e-06</wgt>
  <wgt id="11">2.8251e-06</wgt>
  <wgt id="12">2.8251e-06</wgt>
  <wgt id="13">2.8251e-06</wgt>
  <wgt id="14">2.8339e-06</wgt>
  <wgt id="15">2.81768e-06</wgt>
  <wgt id="16">2.80705e-06</wgt>
  <wgt id="17">2.84497e-06</wgt>
  <wgt id="18">2.85273e-06</wgt>
  <wgt id="19">2.78375e-06</wgt>
  <wgt id="20">2.80097e-06</wgt>
  <wgt id="21">2.84122e-06</wgt>
  <wgt id="22">2.85523e-06</wgt>
  <wgt id="23">2.78203e-06</wgt>
  <wgt id="24">2.80832e-06</wgt>
  <wgt id="25">2.83529e-06</wgt>
  <wgt id="26">2.82384e-06</wgt>
  <wgt id="27">2.8266e-06</wgt>
  <wgt id="28">2.82361e-06</wgt>
  <wgt id="29">2.82543e-06</wgt>
  <wgt id="30">2.83577e-06</wgt>
  <wgt id="31">2.80961e-06</wgt>
  <wgt id="32">2.82161e-06</wgt>
  <wgt id="33">2.82813e-06</wgt>
  <wgt id="34">2.8043e-06</wgt>
  <wgt id="35">2.8636e-06</wgt>
  <wgt id="36">2.82236e-06</wgt>
  <wgt id="37">2.82624e-06</wgt>
  <wgt id="38">2.80534e-06</wgt>
  <wgt id="39">2.83421e-06</wgt>
  <wgt id="40">2.83017e-06</wgt>
  <wgt id="41">2.82173e-06</wgt>
  <wgt id="42">2.82811e-06</wgt>
  <wgt id="43">2.81164e-06</wgt>
  <wgt id="44">2.80676e-06</wgt>
  <wgt id="45">2.83169e-06</wgt>
  <wgt id="46">2.84599e-06</wgt>
  <wgt id="47">2.80729e-06</wgt>
  <wgt id="48">2.79908e-06</wgt>
  <wgt id="49">2.83762e-06</wgt>
  <wgt id="50">2.83372e-06</wgt>
  <wgt id="51">2.80666e-06</wgt>
  <wgt id="52">2.77662e-06</wgt>
  <wgt id="53">2.87093e-06</wgt>
</rwgt>
</event>
<event>
 11      0 +2.8251000e-06 3.54395000e+02 7.54677100e-03 1.02235300e-01
        2 -1    0    0  502    0 +0.00000000000e+00 +0.00000000000e+00 +1.00582658010e+03  1.00582658010e+03  0.00000000000e+00 0.0000e+00 -1.0000e+00
        4 -1    0    0  503    0 +0.00000000000e+00 +0.00000000000e+00 -3.16341596330e+02  3.16341596330e+02  0.00000000000e+00 0.0000e+00 -1.0000e+00
       24  2    1    2    0    0 +5.48877701494e+01 -1.03875350643e+02 +8.14691422715e+01  1.63462287736e+02  7.92460887750e+01 0.0000e+00 0.0000e+00
       14  1    3    3    0    0 +2.06765052436e+01 -6.82098184208e+01 +3.76605356398e+00  7.13742275442e+01  0.00000000000e+00 0.0000e+00 -1.0000e+00
      -13  1    3    3    0    0 +3.42112649058e+01 -3.56655322224e+01 +7.77030887075e+01  9.20880601915e+01  0.00000000000e+00 0.0000e+00 1.0000e+00
       24  2    1    2    0    0 +1.15531697918e+02 -5.51250739491e+01 +3.35707482463e+02  3.68789126160e+02  8.31838854034e+01 0.0000e+00 0.0000e+00
       12  1    6    6    0    0 +1.14201532168e+02 -4.81792787667e+01 +2.17256421391e+02  2.50127138646e+02  0.00000000000e+00 0.0000e+00 -1.0000e+00
      -11  1    6    6    0    0 +1.33016575026e+00 -6.94579518241e+00 +1.18451061072e+02  1.18661987514e+02  0.00000000000e+00 0.0000e+00 1.0000e+00
       21  1    1    2  503  501 +1.12045286863e+02 -1.03304496784e+02 -5.18496721831e+01  1.60979358520e+02  0.00000000000e+00 0.0000e+00 -1.0000e+00
        1  1    1    2  501    0 +7.89352211877e+01 +1.00791859944e+02 +1.96622078516e+01  1.29523629475e+02  0.00000000000e+00 0.0000e+00 -1.0000e+00
        3  1    1    2  502    0 -3.61399976118e+02 +1.61513061433e+02 +3.04495823367e+02  4.99413774539e+02  0.00000000000e+00 0.0000e+00 -1.0000e+00
#  0.1300000e+05  0.1300000e+05  0.1966749e+03  0.1300000e+05  0.1300000e+05
<mgrwt>
<rscale>  3 0.28683761e+03</rscale>
<asrwt>0</asrwt>
<pdfrwt beam="1">  1        2 0.15474255e+00 0.35439503e+03</pdfrwt>
<pdfrwt beam="2">  1        4 0.48667938e-01 0.15208329e+03</pdfrwt>
<totfact> 0.66864108e-02</totfact>
</mgrwt>
<clustering>
<clus scale="  128.391">  3  6 -1 -1</clus>
<clus scale="  152.083">  2  4  1 -1</clus>
<clus scale="  196.675">  2  5  1 -1</clus>
<clus scale="  259.198">  2  7  1 -1</clus>
<clus scale="  354.395">  1  3  2 -1</clus>
</clustering>
<rwgt>
  <wgt id="1">5.0086e-06</wgt>
  <wgt id="2">2.75364e-06</wgt>
  <wgt id="3">1.67824e-06</wgt>
  <wgt id="4">5.13859e-06</wgt>
  <wgt id="5">2.8251e-06</wgt>
  <wgt id="6">1.72179e-06</wgt>
  <wgt id="7">5.05054e-06</wgt>
  <wgt id="8">2.77669e-06</wgt>
  <wgt id="9">1.69229e-06</wgt>
  <wgt id="10">2.8251e-06</wgt>
  <wgt id="11">2.8251e-06</wgt>
  <wgt id="12">2.8251e-06</wgt>
  <wgt id="13">2.8251e-06</wgt>
  <wgt id="14">2.83345e-06</wgt>
  <wgt id="15">2.81824e-06</wgt>
  <wgt id="16">2.81981e-06</wgt>
  <wgt id="17">2.83088e-06</wgt>
  <wgt id="18">2.81989e-06</wgt>
  <wgt id="19">2.83284e-06</wgt>
  <wgt id="20">2.82147e-06</wgt>
  <wgt id="21">2.8276e-06</wgt>
  <wgt id="22">2.82534e-06</wgt>
  <wgt id="23">2.82481e-06</wgt>
  <wgt id="24">2.82505e-06</wgt>
  <wgt id="25">2.825e-06</wgt>
  <wgt id="26">2.82951e-06</wgt>
  <wgt id="27">2.8191e-06</wgt>
  <wgt id="28">2.84563e-06</wgt>
  <wgt id="29">2.81768e-06</wgt>
  <wgt id="30">2.8187e-06</wgt>
  <wgt id="31">2.83209e-06</wgt>
  <wgt id="32">2.82561e-06</wgt>
  <wgt id="33">2.82457e-06</wgt>
  <wgt id="34">2.82788e-06</wgt>
  <wgt id="35">2.82094e-06</wgt>
  <wgt id="36">2.82527e-06</wgt>
  <wgt id="37">2.82566e-06</wgt>
  <wgt id="38">2.8103e-06</wgt>
  <wgt id="39">2.83222e-06</wgt>
  <wgt id="40">2.81976e-06</wgt>
  <wgt id="41">2.83204e-06</wgt>
  <wgt id="42">2.8208e-06</wgt>
  <wgt id="43">2.83389e-06</wgt>
  <wgt id="44">2.82538e-06</wgt>
  <wgt id="45">2.82511e-06</wgt>
  <wgt id="46">2.82915e-06</wgt>
  <wgt id="47">2.82281e-06</wgt>
  <wgt id="48">2.82414e-06</wgt>
  <wgt id="49">2.8272e-06</wgt>
  <wgt id="50">2.85944e-06</wgt>
  <wgt id="51">2.79068e-06</wgt>
  <wgt id="52">2.83285e-06</wgt>
  <wgt id="53">2.82312e-06</wgt>
</rwgt>
</event>
<event>
 10      0 +2.8251000e-06 1.80186600e+02 7.54677100e-03 1.10264900e-01
        2 -1    0    0  501    0 +0.00000000000e+00 +0.00000000000e+00 +2.51695824730e+02  2.51695824730e+02  0.00000000000e+00 0.0000e+00 -1.0000e+00
        2 -1    0    0  502    0 +0.00000000000e+00 +0.00000000000e+00 -8.76555384030e+02  8.76555384030e+02  0.00000000000e+00 0.0000e+00 -1.0000e+00
       24  2    1    2    0    0 -4.85039310438e+00 -1.52019646409e+01 +3.23728223875e+01  8.89281467707e+01  8.12747784772e+01 0.0000e+00 0.0000e+00
       16  1    3    3    0    0 +3.79963769984e+01 -4.41661947872e+00 +1.93362343198e+01  4.28616512782e+01  0.00000000000e+00 0.0000e+00 -1.0000e+00
      -15  1    3    3    0    0 -4.28467701028e+01 -1.07853451622e+01 +1.30365880677e+01  4.60664954924e+01  1.77700000000e+00 0.0000e+00 1.0000e+00
       24  2    1    2    0    0 +4.08004591667e+01 +8.05073989817e+01 -2.62870759724e+02  2.89414115268e+02  8.07054833282e+01 0.0000e+00 0.0000e+00
       12  1    6    6    0    0 +3.60833182280e+01 +7.17476134276e+01 -2.66758627404e+02  2.78585518614e+02  0.00000000000e+00 0.0000e+00 -1.0000e+00
      -11  1    6    6    0    0 +4.71714093871e+00 +8.75978555409e+00 +3.88786767923e+00  1.08285966544e+01  0.00000000000e+00 0.0000e+00 1.0000e+00
        1  1    1    2  501    0 -2.44961471674e+02 -2.15560826313e+02 -3.66940519846e+02  4.91037613172e+02  0.00000000000e+00 0.0000e+00 -1.0000e+00
        1  1    1    2  502    0 +2.09011405611e+02 +1.50255391972e+02 -2.74211021175e+01  2.58871333549e+02  0.00000000000e+00 0.0000e+00 -1.0000e+00
#  0.1300000e+05  0.1300000e+05  0.1300000e+05  0.1300000e+05
<mgrwt>
<rscale>  2 0.16386226e+03</rscale>
<asrwt>0</asrwt>
<pdfrwt beam="1">  1        2 0.38722435e-01 0.82144530e+02</pdfrwt>
<pdfrwt beam="2">  1        2 0.13485467e+00 0.12010272e+03</pdfrwt>
<totfact> 0.80904435e+00</totfact>
</mgrwt>
<clustering>
<clus scale="   82.145">  1  3  2 -1</clus>
<clus scale="  120.103">  2  4  1 -1</clus>
<clus scale="  270.329">  1  6  2 -1</clus>
<clus scale="  270.329">  1  3  2 -1</clus>
</clustering>
<rwgt>
  <wgt id="1">4.4989e-06</wgt>
  <wgt id="2">2.91025e-06</wgt>
  <wgt id="3">2.04113e-06</wgt>
  <wgt id="4">4.36726e-06</wgt>
  <wgt id="5">2.8251e-06</wgt>
  <wgt id="6">1.9814e-06</wgt>
  <wgt id="7">4.18768e-06</wgt>
  <wgt id="8">2.70893e-06</wgt>
  <wgt id="9">1.89993e-06</wgt>
  <wgt id="10">2.8251e-06</wgt>
  <wgt id="11">2.8251e-06</wgt>
  <wgt id="12">2.8251e-06</wgt>
  <wgt id="13">2.8251e-06</wgt>
  <wgt id="14">2.82828e-06</wgt>
  <wgt id="15">2.8225e-06</wgt>
  <wgt id="16">2.82613e-06</wgt>
  <wgt id="17">2.82382e-06</wgt>
  <wgt id="18">2.81356e-06</wgt>
  <wgt id="19">2.84221e-06</wgt>
  <wgt id="20">2.81409e-06</wgt>
  <wgt id="21">2.83253e-06</wgt>
  <wgt id="22">2.83085e-06</wgt>
  <wgt id="23">2.81697e-06</wgt>
  <wgt id="24">2.85771e-06</wgt>
  <wgt id="25">2.80496e-06</wgt>
  <wgt id="26">2.82378e-06</wgt>
  <wgt id="27">2.82694e-06</wgt>
  <wgt id="28">2.86033e-06</wgt>
  <wgt id="29">2.81228e-06</wgt>
  <wgt id="30">2.8316e-06</wgt>
  <wgt id="31">2.8166e-06</wgt>
  <wgt id="32">2.83045e-06</wgt>
  <wgt id="33">2.82004e-06</wgt>
  <wgt id="34">2.79383e-06</wgt>
  <wgt id="35">2.88217e-06</wgt>
  <wgt id="36">2.83629e-06</wgt>
  <wgt id="37">2.8195e-06</wgt>
  <wgt id="38">2.81669e-06</wgt>
  <wgt id="39">2.82912e-06</wgt>
  <wgt id="40">2.82556e-06</wgt>
  <wgt id="41">2.82516e-06</wgt>
  <wgt id="42">2.845e-06</wgt>
  <wgt id="43">2.78733e-06</wgt>
  <wgt id="44">2.83519e-06</wgt>
  <wgt id="45">2.82115e-06</wgt>
  <wgt id="46">2.82407e-06</wgt>
  <wgt id="47">2.82627e-06</wgt>
  <wgt id="48">2.79535e-06</wgt>
  <wgt id="49">2.84e-06</wgt>
  <wgt id="50">2.81345e-06</wgt>
  <wgt id="51">2.83643e-06</wgt>
  <wgt id="52">2.82676e-06</wgt>
  <wgt id="53">2.82448e-06</wgt>
</rwgt>
</event>
<event>
 11      0 +2.8251000e-06 2.96264800e+02 7.54677100e-03 1.04103800e-01
        2 -1    0    0  501    0 +0.00000000000e+00 +0.00000000000e+00 +1.75369348620e+02  1.75369348620e+02  0.00000000000e+00 0.0000e+00 -1.0000e+00
        2 -1    0    0  503    0 +0.00000000000e+00 +0.00000000000e+00 -2.63306350380e+03  2.63306350380e+03  0.00000000000e+00 0.0000e+00 -1.0000e+00
       24  2    1    2    0    0 -1.10903411005e+02 +4.81024427077e+01 -5.55153428582e+02  5.73939901548e+02  8.12297344319e+01 0.0000e+00 0.0000e+00
       16  1    3    3    0    0 -1.10498194011e+02 +1.41438617443e+01 -4.39986103616e+02  4.53869663098e+02  0.00000000000e+00 0.0000e+00 -1.0000e+00
      -15  1    3    3    0    0 -4.05216993673e-01 +3.39585809634e+01 -1.15167324965e+02  1.20070238450e+02  1.77700000000e+00 0.0000e+00 1.0000e+00
       24  2    1    2    0    0 -1.48699591937e+02 -2.29351430753e+02 -1.79811123387e+02  3.38006346081e+02  8.48681475401e+01 0.0000e+00 0.0000e+00
       12  1    6    6    0    0 -1.21484461255e+02 -2.17639393478e+02 -1.81416800561e+02  3.08281422479e+02  0.00000000000e+00 0.0000e+00 -1.0000e+00
      -11  1    6    6    0    0 -2.72151306818e+01 -1.17120372753e+01 +1.60567717395e+00  2.97249236025e+01  0.00000000000e+00 0.0000e+00 1.0000e+00
       21  1    1    2  503  502 +1.41114350070e+02 +5.87040722357e+00 -1.49916864170e+02  2.05967928667e+02  0.00000000000e+00 0.0000e+00 -1.0000e+00
        1  1    1    2  501    0 -6.62217270530e+01 +2.55125502030e+02 -1.40210602140e+03  1.42666591540e+03  0.00000000000e+00 0.0000e+00 -1.0000e+00
        1  1    1    2  502    0 +1.84710379925e+02 -7.97469212080e+01 -1.70706717645e+02  2.63852760727e+02  0.00000000000e+00 0.0000e+00 -1.0000e+00
#  0.1300000e+05  0.1300000e+05  0.6659828e+02  0.1300000e+05  0.1300000e+05
<mgrwt>
<rscale>  2 0.24981151e+03</rscale>
<asrwt>  1 0.66598280e+02</asrwt>
<pdfrwt beam="1">  1        2 0.26979900e-01 0.28791896e+03</pdfrwt>
<pdfrwt beam="2">  1        2 0.40508669e+00 0.14554581e+03</pdfrwt>
<totfact> 0.15352701e-01</totfact>
</mgrwt>
<clustering>
<clus scale="   66.598">  5  7 -1 -1</clus>
<clus scale="  145.546">  2  3  1 -1</clus>
<clus scale="  287.919">  1  4  2 -1</clus>
<clus scale="  294.252">  2  6  1 -1</clus>
<clus scale="  304.853">  1  3  2 -1</clus>
</clustering>
<rwgt>
  <wgt id="1">5.0471e-06</wgt>
  <wgt id="2">3.3587e-06</wgt>
  <wgt id="3">2.40056e-06</wgt>
  <wgt id="4">4.24526e-06</wgt>
  <wgt id="5">2.8251e-06</wgt>
  <wgt id="6">2.01918e-06</wgt>
  <wgt id="7">3.64599e-06</wgt>
  <wgt id="8">2.4263e-06</wgt>
  <wgt id="9">1.73415e-06</wgt>
  <wgt id="10">3.64947e-06</wgt>
  <wgt id="11">2.8251e-06</wgt>
  <wgt id="12">2.30916e-06</wgt>
  <wgt id="13">2.8251e-06</wgt>
  <wgt id="14">2.82895e-06</wgt>
  <wgt id="15">2.82192e-06</wgt>
  <wgt id="16">2.81664e-06</wgt>
  <wgt id="17">2.83437e-06</wgt>
  <wgt id="18">2.81193e-06</wgt>
  <wgt id="19">2.8446e-06</wgt>
  <wgt id="20">2.8201e-06</wgt>
  <wgt id="21">2.82843e-06</wgt>
  <wgt id="22">2.83246e-06</wgt>
  <wgt id="23">2.81453e-06</wgt>
  <wgt id="24">2.86519e-06</wgt>
  <wgt id="25">2.80032e-06</wgt>
  <wgt id="26">2.82516e-06</wgt>
  <wgt id="27">2.82493e-06</wgt>
  <wgt id="28">2.84297e-06</wgt>
  <wgt id="29">2.8183e-06</wgt>
  <wgt id="30">2.83096e-06</wgt>
  <wgt id="31">2.81707e-06</wgt>
  <wgt id="32">2.82164e-06</wgt>
  <wgt id="33">2.82827e-06</wgt>
  <wgt id="34">2.78958e-06</wgt>
  <wgt id="35">2.88987e-06</wgt>
  <wgt id="36">2.83025e-06</wgt>
  <wgt id="37">2.8233e-06</wgt>
  <wgt id="38">2.81941e-06</wgt>
  <wgt id="39">2.82847e-06</wgt>
  <wgt id="40">2.83705e-06</wgt>
  <wgt id="41">2.81334e-06</wgt>
  <wgt id="42">2.84216e-06</wgt>
  <wgt id="43">2.79332e-06</wgt>
  <wgt id="44">2.83419e-06</wgt>
  <wgt id="45">2.82158e-06</wgt>
  <wgt id="46">2.822e-06</wgt>
  <wgt id="47">2.82731e-06</wgt>
  <wgt id="48">2.8151e-06</wgt>
  <wgt id="49">2.83402e-06</wgt>
  <wgt id="50">2.81639e-06</wgt>
  <wgt id="51">2.83227e-06</wgt>
  <wgt id="52">2.83149e-06</wgt>
  <wgt id="53">2.82359e-06</wgt>
</rwgt>
</event>
<event>
 11      0 +2.8251000e-06 3.79816800e+02 7.54677100e-03 1.00129600e-01
        2 -1    0    0  501    0 +0.00000000000e+00 +0.00000000000e+00 +1.02597461190e+03  1.02597461190e+03  0.00000000000e+00 0.0000e+00 -1.0000e+00
        2 -1    0    0  503    0 +0.00000000000e+00 +0.00000000000e+00 -1.49368351320e+03  1.49368351320e+03  0.00000000000e+00 0.0000e+00 -1.0000e+00
       24  2    1    2    0    0 +2.62703141719e+01 +1.10850614154e+02 +2.07708759745e+02  2.49870636375e+02  7.94633121807e+01 0.0000e+00 0.0000e+00
        2  1    3    3  504    0 +1.33781329105e+01 +7.51714458938e+01 +5.92606599319e+01  9.66516763099e+01  0.00000000000e+00 0.0000e+00 -1.0000e+00
       -1  1    3    3    0  504 +1.28921812614e+01 +3.56791682606e+01 +1.48448099813e+02  1.53218960065e+02  0.00000000000e+00 0.0000e+00 1.0000e+00
       24  2    1    2    0    0 -1.01398023959e+02 -1.85040156159e+02 -7.95385297531e+02  8.26859885702e+02  8.08583972152e+01 0.0000e+00 0.0000e+00
        2  1    6    6  505    0 -6.08848815782e+01 -1.62353701038e+02 -6.94235706960e+02  7.15561953897e+02  0.00000000000e+00 0.0000e+00 -1.0000e+00
       -1  1    6    6    0  505 -4.05131423806e+01 -2.26864551209e+01 -1.01149590570e+02  1.11297931805e+02  0.00000000000e+00 0.0000e+00 1.0000e+00
       21  1    1    2  503  502 +9.87956374522e+01 +7.95076689646e+01 +4.02853912005e+01  1.33059987028e+02  0.00000000000e+00 0.0000e+00 -1.0000e+00
        1  1    1    2  501    0 -3.73055609024e+02 -3.39649445910e+02 -3.88516391294e+02  6.36770931996e+02  0.00000000000e+00 0.0000e+00 -1.0000e+00
        1  1    1    2  502    0 +3.49387681359e+02 +3.34331318950e+02 +4.68198636579e+02  6.73096683999e+02  0.00000000000e+00 0.0000e+00 -1.0000e+00
#  0.1300000e+05  0.1300000e+05  0.7097077e+02  0.1300000e+05  0.1300000e+05
<mgrwt>
<rscale>  2 0.33726002e+03</rscale>
<asrwt>  1 0.70970773e+02</asrwt>
<pdfrwt beam="1">  1        2 0.15784225e+00 0.13901971e+03</pdfrwt>
<pdfrwt beam="2">  1        2 0.22979746e+00 0.22362149e+03</pdfrwt>
<totfact> 0.74256742e-02</totfact>
</mgrwt>
<clustering>
<clus scale="   70.971">  5  7 -1 -1</clus>
<clus scale="  139.020">  1  3  2 -1</clus>
<clus scale="  223.621">  2  4  1 -1</clus>
<clus scale="  630.053">  2  6  1 -1</clus>
<clus scale="  645.111">  1  3  2 -1</clus>
</clustering>
<rwgt>
  <wgt id="1">5.02539e-06</wgt>
  <wgt id="2">3.40485e-06</wgt>
  <wgt id="3">2.46348e-06</wgt>
  <wgt id="4">4.16971e-06</wgt>
  <wgt id="5">2.8251e-06</wgt>
  <wgt id="6">2.04402e-06</wgt>
  <wgt id="7">3.54255e-06</wgt>
  <wgt id="8">2.40018e-06</wgt>
  <wgt id="9">1.73658e-06</wgt>
  <wgt id="10">3.63803e-06</wgt>
  <wgt id="11">2.8251e-06</wgt>
  <wgt id="12">2.31363e-06</wgt>
  <wgt id="13">2.8251e-06</wgt>
  <wgt id="14">2.82805e-06</wgt>
  <wgt id="15">2.82265e-06</wgt>
  <wgt id="16">2.80849e-06</wgt>
  <wgt id="17">2.84359e-06</wgt>
  <wgt id="18">2.81093e-06</wgt>
  <wgt id="19">2.84609e-06</wgt>
  <wgt id="20">2.81645e-06</wgt>
  <wgt id="21">2.83091e-06</wgt>
  <wgt id="22">2.83347e-06</wgt>
  <wgt id="23">2.8132e-06</wgt>
  <wgt id="24">2.87075e-06</wgt>
  <wgt id="25">2.79701e-06</wgt>
  <wgt id="26">2.82545e-06</wgt>
  <wgt id="27">2.82461e-06</wgt>
  <wgt id="28">2.87877e-06</wgt>
  <wgt id="29">2.80573e-06</wgt>
  <wgt id="30">2.83144e-06</wgt>
  <wgt id="31">2.81721e-06</wgt>
  <wgt id="32">2.82693e-06</wgt>
  <wgt id="33">2.82338e-06</wgt>
  <wgt id="34">2.78297e-06</wgt>
  <wgt id="35">2.90314e-06</wgt>
  <wgt id="36">2.8494e-06</wgt>
  <wgt id="37">2.81124e-06</wgt>
  <wgt id="38">2.81296e-06</wgt>
  <wgt id="39">2.83143e-06</wgt>
  <wgt id="40">2.8282e-06</wgt>
  <wgt id="41">2.82233e-06</wgt>
  <wgt id="42">2.85025e-06</wgt>
  <wgt id="43">2.78506e-06</wgt>
  <wgt id="44">2.83128e-06</wgt>
  <wgt id="45">2.82296e-06</wgt>
  <wgt id="46">2.82323e-06</wgt>
  <wgt id="47">2.82625e-06</wgt>
  <wgt id="48">2.82477e-06</wgt>
  <wgt id="49">2.82995e-06</wgt>
  <wgt id="50">2.81702e-06</wgt>
  <wgt id="51">2.8375e-06</wgt>
  <wgt id="52">2.84198e-06</wgt>
  <wgt id="53">2.82081e-06</wgt>
</rwgt>
</event>
<event>
 11      0 +2.8251000e-06 1.76851200e+02 7.54677100e-03 1.11086400e-01
        2 -1    0    0  501    0 +0.00000000000e+00 +0.00000000000e+00 +2.86846299590e+02  2.86846299590e+02  0.00000000000e+00 0.0000e+00 -1.0000e+00
        2 -1    0    0  503    0 +0.00000000000e+00 +0.00000000000e+00 -1.14764086910e+03  1.14764086910e+03  0.00000000000e+00 0.0000e+00 -1.0000e+00
       24  2    1    2    0    0 +8.82288368207e+01 -8.97751089141e+01 +5.54127912114e+01  1.59263290325e+02  8.03138866459e+01 0.0000e+00 0.0000e+00
        2  1    3    3  504    0 +9.47918795338e+01 -8.40305002342e+01 +2.69717089770e+01  1.29514858145e+02  0.00000000000e+00 0.0000e+00 -1.0000e+00
       -1  1    3    3    0  504 -6.56304271305e+00 -5.74460867988e+00 +2.84410822343e+01  2.97484321805e+01  0.00000000000e+00 0.0000e+00 1.0000e+00
       24  2    1    2    0    0 -2.79336286555e+01 -1.97154345426e+01 -2.79324689746e+02  2.91926299798e+02  7.76511187491e+01 0.0000e+00 0.0000e+00
        4  1    6    6  505    0 +3.79934020976e+00 +1.98946629668e+01 -1.72195806063e+02  1.73382894849e+02  0.00000000000e+00 0.0000e+00 -1.0000e+00
       -3  1    6    6    0  505 -3.17329688652e+01 -3.96100975094e+01 -1.07128883683e+02  1.18543404949e+02  0.00000000000e+00 0.0000e+00 1.0000e+00
       21  1    1    2  503  502 +6.49725428119e+01 -1.58027992594e+02 -3.93638542979e+02  4.29121871129e+02  0.00000000000e+00 0.0000e+00 -1.0000e+00
        1  1    1    2  501    0 -1.03186041705e+02 -3.47508968724e+00 +8.08517371066e+01  1.31135193005e+02  0.00000000000e+00 0.0000e+00 -1.0000e+00
        1  1    1    2  502    0 -2.20817092717e+01 +2.70993625738e+02 -3.24095865103e+02  4.23040514433e+02  0.00000000000e+00 0.0000e+00 -1.0000e+00
#  0.1300000e+05  0.1300000e+05  0.1300000e+05  0.1300000e+05  0.1300000e+05
<mgrwt>
<rscale>  3 0.15545353e+03</rscale>
<asrwt>0</asrwt>
<pdfrwt beam="1">  1        2 0.44130200e-01 0.14571460e+03</pdfrwt>
<pdfrwt beam="2">  1        2 0.17656013e+00 0.86990882e+02</pdfrwt>
<totfact> 0.56598360e-01</totfact>
</mgrwt>
<clustering>
<clus scale="   86.991">  2  4  1 -1</clus>
<clus scale="  103.974">  2  6  1 -1</clus>
<clus scale="  145.715">  1  3  2 -1</clus>
<clus scale="  214.641">  1  7  2 -1</clus>
<clus scale="  214.641">  1  3  2 -1</clus>
</clustering>
<rwgt>
  <wgt id="1">5.89298e-06</wgt>
  <wgt id="2">3.0482e-06</wgt>
  <wgt id="3">1.78371e-06</wgt>
  <wgt id="4">5.46168e-06</wgt>
  <wgt id="5">2.8251e-06</wgt>
  <wgt id="6">1.65316e-06</wgt>
  <wgt id="7">5.06404e-06</wgt>
  <wgt id="8">2.61942e-06</wgt>
  <wgt id="9">1.5328e-06</wgt>
  <wgt id="10">2.8251e-06</wgt>
  <wgt id="11">2.8251e-06</wgt>
  <wgt id="12">2.8251e-06</wgt>
  <wgt id="13">2.8251e-06</wgt>
  <wgt id="14">2.82823e-06</wgt>
  <wgt id="15">2.82245e-06</wgt>
  <wgt id="16">2.82232e-06</wgt>
  <wgt id="17">2.82802e-06</wgt>
  <wgt id="18">2.81307e-06</wgt>
  <wgt id="19">2.84294e-06</wgt>
  <wgt id="20">2.81493e-06</wgt>
  <wgt id="21">2.83193e-06</wgt>
  <wgt id="22">2.83143e-06</wgt>
  <wgt id="23">2.81611e-06</wgt>
  <wgt id="24">2.86044e-06</wgt>
  <wgt id="25">2.80327e-06</wgt>
  <wgt id="26">2.82417e-06</wgt>
  <wgt id="27">2.82636e-06</wgt>
  <wgt id="28">2.86429e-06</wgt>
  <wgt id="29">2.81086e-06</wgt>
  <wgt id="30">2.83121e-06</wgt>
  <wgt id="31">2.81708e-06</wgt>
  <wgt id="32">2.82979e-06</wgt>
  <wgt id="33">2.82062e-06</wgt>
  <wgt id="34">2.79169e-06</wgt>
  <wgt id="35">2.88619e-06</wgt>
  <wgt id="36">2.83724e-06</wgt>
  <wgt id="37">2.81871e-06</wgt>
  <wgt id="38">2.81613e-06</wgt>
  <wgt id="39">2.82948e-06</wgt>
  <wgt id="40">2.82598e-06</wgt>
  <wgt id="41">2.8246e-06</wgt>
  <wgt id="42">2.84597e-06</wgt>
  <wgt id="43">2.78704e-06</wgt>
  <wgt id="44">2.83403e-06</wgt>
  <wgt id="45">2.82162e-06</wgt>
  <wgt id="46">2.82381e-06</wgt>
  <wgt id="47">2.82626e-06</wgt>
  <wgt id="48">2.80119e-06</wgt>
  <wgt id="49">2.83813e-06</wgt>
  <wgt id="50">2.81487e-06</wgt>
  <wgt id="51">2.8363e-06</wgt>
  <wgt id="52">2.82976e-06</wgt>
  <wgt id="53">2.82373e-06</wgt>
</rwgt>
</event>
<event>
 12      0 +2.8251000e-06 5.47305200e+02 7.54677100e-03 9.58086500e-02
        2 -1    0    0  503    0 +0.00000000000e+00 +0.00000000000e+00 +3.03486289170e+02  3.03486289170e+02  0.00000000000e+00 0.0000e+00 -1.0000e+00
        2 -1    0    0  501    0 +0.00000000000e+00 +0.00000000000e+00 -2.79643934460e+03  2.79643934460e+03  0.00000000000e+00 0.0000e+00 -1.0000e+00
       24  2    1    2    0    0 -4.30590076780e+02 -1.65686918977e+02 -3.35241315940e+02  5.75946805607e+02  8.04239618181e+01 0.0000e+00 0.0000e+00
       12  1    3    3    0    0 -3.73954839278e+02 -1.42691006338e+02 -2.53180520156e+02  4.73606715425e+02  0.00000000000e+00 0.0000e+00 -1.0000e+00
      -11  1    3    3    0    0 -5.66352375022e+01 -2.29959126383e+01 -8.20607957835e+01  1.02340090182e+02  0.00000000000e+00 0.0000e+00 1.0000e+00
       24  2    1    2    0    0 +1.28653259750e+02 -1.30570423212e+02 -1.12778307554e+03  1.14546497126e+03  8.12098407037e+01 0.0000e+00 0.0000e+00
       16  1    6    6    0    0 +4.97223940268e+01 -1.05192042165e+02 -7.19721966556e+02  7.29066109037e+02  0.00000000000e+00 0.0000e+00 -1.0000e+00
      -15  1    6    6    0    0 +7.89308657233e+01 -2.53783810470e+01 -4.08061108988e+02  4.16398862219e+02  1.77700000000e+00 0.0000e+00 1.0000e+00
       21  1    1    2  503  504 -7.83642777415e+01 +2.06387632168e+02 -2.63917029623e+02  3.44077045534e+02  0.00000000000e+00 0.0000e+00 -1.0000e+00
       21  1    1    2  504  502 +2.79645497005e+02 +7.52998516405e+01 -2.28157081401e+02  3.68683231848e+02  0.00000000000e+00 0.0000e+00 1.0000e+00
        1  1    1    2  501    0 +2.88533037647e+01 +1.20777052933e+02 -1.22940734619e+01  1.24782826926e+02  0.00000000000e+00 0.0000e+00 -1.0000e+00
        1  1    1    2  502    0 +7.18022940014e+01 -1.06207194553e+02 -5.25560479460e+02  5.40970752600e+02  0.00000000000e+00 0.0000e+00 -1.0000e+00
#  0.1300000e+05  0.1300000e+05  0.2208074e+03  0.2896929e+03  0.1300000e+05  0.1300000e+05
<mgrwt>
<rscale>  2 0.48108337e+03</rscale>
<asrwt>  2 0.22080736e+03 0.28969285e+03</asrwt>
<pdfrwt beam="1">  3        2        2        2 0.46690198e-01 0.35446077e-01 0.21664303e-01 0.22080736e+03 0.28969285e+03 0.54730518e+03</pdfrwt>
<pdfrwt beam="2">  1        2 0.43022144e+00 0.32673277e+03</pdfrwt>
<totfact> 0.44812539e-03</totfact>
</mgrwt>
<clustering>
<clus scale="  124.192">  3  7 -1 -1</clus>
<clus scale="  128.136">  4  8 -1 -1</clus>
<clus scale="  220.807">  1  5  2 -1</clus>
<clus scale="  289.693">  1  6  2 -1</clus>
<clus scale="  326.733">  2  4  1 -1</clus>
<clus scale="  547.305">  1  3  2 -1</clus>
</clustering>
<rwgt>
  <wgt id="1">4.87953e-06</wgt>
  <wgt id="2">3.37001e-06</wgt>
  <wgt id="3">2.471e-06</wgt>
  <wgt id="4">4.09055e-06</wgt>
  <wgt id="5">2.8251e-06</wgt>
  <wgt id="6">2.07146e-06</wgt>
  <wgt id="7">3.54535e-06</wgt>
  <wgt id="8">2.44856e-06</wgt>
  <wgt id="9">1.79537e-06</wgt>
  <wgt id="10">4.24282e-06</wgt>
  <wgt id="11">2.8251e-06</wgt>
  <wgt id="12">2.02002e-06</wgt>
  <wgt id="13">2.8251e-06</wgt>
  <wgt id="14">2.82867e-06</wgt>
  <wgt id="15">2.82212e-06</wgt>
  <wgt id="16">2.81273e-06</wgt>
  <wgt id="17">2.8387e-06</wgt>
  <wgt id="18">2.8105e-06</wgt>
  <wgt id="19">2.84648e-06</wgt>
  <wgt id="20">2.81686e-06</wgt>
  <wgt id="21">2.83062e-06</wgt>
  <wgt id="22">2.83323e-06</wgt>
  <wgt id="23">2.81332e-06</wgt>
  <wgt id="24">2.87007e-06</wgt>
  <wgt id="25">2.79745e-06</wgt>
  <wgt id="26">2.82446e-06</wgt>
  <wgt id="27">2.82594e-06</wgt>
  <wgt id="28">2.8463e-06</wgt>
  <wgt id="29">2.81707e-06</wgt>
  <wgt id="30">2.82754e-06</wgt>
  <wgt id="31">2.82163e-06</wgt>
  <wgt id="32">2.82048e-06</wgt>
  <wgt id="33">2.8295e-06</wgt>
  <wgt id="34">2.78863e-06</wgt>
  <wgt id="35">2.89209e-06</wgt>
  <wgt id="36">2.83581e-06</wgt>
  <wgt id="37">2.82076e-06</wgt>
  <wgt id="38">2.8173e-06</wgt>
  <wgt id="39">2.82932e-06</wgt>
  <wgt id="40">2.83874e-06</wgt>
  <wgt id="41">2.81134e-06</wgt>
  <wgt id="42">2.84432e-06</wgt>
  <wgt id="43">2.79123e-06</wgt>
  <wgt id="44">2.83608e-06</wgt>
  <wgt id="45">2.82069e-06</wgt>
  <wgt id="46">2.82439e-06</wgt>
  <wgt id="47">2.82581e-06</wgt>
  <wgt id="48">2.81473e-06</wgt>
  <wgt id="49">2.83478e-06</wgt>
  <wgt id="50">2.81655e-06</wgt>
  <wgt id="51">2.8368e-06</wgt>
  <wgt id="52">2.83186e-06</wgt>
  <wgt id="53">2.82368e-06</wgt>
</rwgt>
</event>
<event>
 12      0 +2.8251000e-06 3.68586300e+02 7.54677100e-03 1.03452100e-01
        2 -1    0    0  503    0 +0.00000000000e+00 +0.00000000000e+00 +1.55063729870e+03  1.55063729870e+03  0.00000000000e+00 0.0000e+00 -1.0000e+00
       21 -1    0    0  502  503 +0.00000000000e+00 +0.00000000000e+00 -4.31631784170e+02  4.31631784170e+02  0.00000000000e+00 0.0000e+00 1.0000e+00
       24  2    1    2    0    0 -3.29751075363e+00 +4.84104834818e+01 +5.08719393762e+02  5.17373239590e+02  8.07787036714e+01 0.0000e+00 0.0000e+00
       12  1    3    3    0    0 -4.71214743899e+00 +7.07377237768e+01 +3.52333623338e+02  3.59395342253e+02  0.00000000000e+00 0.0000e+00 -1.0000e+00
      -11  1    3    3    0    0 +1.41463668536e+00 -2.23272402950e+01 +1.56385770423e+02  1.57977897337e+02  0.00000000000e+00 0.0000e+00 1.0000e+00
       24  2    1    2    0    0 +6.68647738989e+01 +3.46442329042e+01 -1.21779953491e+02  1.64860557941e+02  8.17161283360e+01 0.0000e+00 0.0000e+00
        4  1    6    6  505    0 +7.98622693362e+01 +1.51023737550e+01 -1.14253227700e+02  1.40213636271e+02  0.00000000000e+00 0.0000e+00 -1.0000e+00
       -3  1    6    6    0  505 -1.29974954373e+01 +1.95418591493e+01 -7.52672579109e+00  2.46469216696e+01  0.00000000000e+00 0.0000e+00 1.0000e+00
       21  1    1    2  504  501 -6.30395991805e+01 -8.47794271581e+01 +4.17773882052e+01  1.13608505401e+02  0.00000000000e+00 0.0000e+00 1.0000e+00
        1  1    1    2  501    0 +1.33650528270e+02 +3.17192756599e+01 +5.84309803927e+02  6.00238721777e+02  0.00000000000e+00 0.0000e+00 -1.0000e+00
        3  1    1    2  502    0 +1.62649699457e+02 +1.30983943684e+02 -4.92256774339e+01  2.14557417852e+02  0.00000000000e+00 0.0000e+00 -1.0000e+00
       -4  1    1    2    0  504 -2.96827891692e+02 -1.60978508572e+02 +1.55204559561e+02  3.71630640309e+02  0.00000000000e+00 0.0000e+00 1.0000e+00
#  0.1300000e+05  0.1300000e+05  0.4621871e+02  0.1300000e+05  0.1300000e+05  0.1300000e+05
<mgrwt>
<rscale>  3 0.26199539e+03</rscale>
<asrwt>  1 0.46218713e+02</asrwt>
<pdfrwt beam="1">  1       21 0.66404890e-01 0.36858629e+03</pdfrwt>
<pdfrwt beam="2">  1        2 0.23855958e+00 0.94092939e+02</pdfrwt>
<totfact> 0.54880705e-02</totfact>
</mgrwt>
<clustering>
<clus scale="   46.219">  5  8 -1 -1</clus>
<clus scale="   94.093">  1  3  2 -1</clus>
<clus scale="  144.613">  1  6  2 -1</clus>
<clus scale="  237.055">  4  7 -1 -1</clus>
<clus scale="  329.528">  1  5  2 -1</clus>
<clus scale="  368.586">  2  3  1 -1</clus>
</clustering>
<rwgt>
  <wgt id="1">6.53689e-06</wgt>
  <wgt id="2">3.56426e-06</wgt>
  <wgt id="3">2.16013e-06</wgt>
  <wgt id="4">5.18127e-06</wgt>
  <wgt id="5">2.8251e-06</wgt>
  <wgt id="6">1.71216e-06</wgt>
  <wgt id="7">4.22536e-06</wgt>
  <wgt id="8">2.30389e-06</wgt>
  <wgt id="9">1.39628e-06</wgt>
  <wgt id="10">3.72263e-06</wgt>
  <wgt id="11">2.8251e-06</wgt>
  <wgt id="12">2.28194e-06</wgt>
  <wgt id="13">2.8251e-06</wgt>
  <wgt id="14">2.8323e-06</wgt>
  <wgt id="15">2.81914e-06</wgt>
  <wgt id="16">2.81452e-06</wgt>
  <wgt id="17">2.8369e-06</wgt>
  <wgt id="18">2.81778e-06</wgt>
  <wgt id="19">2.83601e-06</wgt>
  <wgt id="20">2.82316e-06</wgt>
  <wgt id="21">2.82638e-06</wgt>
  <wgt id="22">2.82832e-06</wgt>
  <wgt id="23">2.82045e-06</wgt>
  <wgt id="24">2.84182e-06</wgt>
  <wgt id="25">2.81475e-06</wgt>
  <wgt id="26">2.82643e-06</wgt>
  <wgt id="27">2.82333e-06</wgt>
  <wgt id="28">2.85187e-06</wgt>
  <wgt id="29">2.81536e-06</wgt>
  <wgt id="30">2.81332e-06</wgt>
  <wgt id="31">2.83927e-06</wgt>
  <wgt id="32">2.8261e-06</wgt>
  <wgt id="33">2.82399e-06</wgt>
  <wgt id="34">2.8226e-06</wgt>
  <wgt id="35">2.83191e-06</wgt>
  <wgt id="36">2.81961e-06</wgt>
  <wgt id="37">2.82935e-06</wgt>
  <wgt id="38">2.81072e-06</wgt>
  <wgt id="39">2.83241e-06</wgt>
  <wgt id="40">2.82134e-06</wgt>
  <wgt id="41">2.82777e-06</wgt>
  <wgt id="42">2.82774e-06</wgt>
  <wgt id="43">2.82204e-06</wgt>
  <wgt id="44">2.82466e-06</wgt>
  <wgt id="45">2.8256e-06</wgt>
  <wgt id="46">2.82566e-06</wgt>
  <wgt id="47">2.8247e-06</wgt>
  <wgt id="48">2.83314e-06</wgt>
  <wgt id="49">2.82417e-06</wgt>
  <wgt id="50">2.84434e-06</wgt>
  <wgt id="51">2.81461e-06</wgt>
  <wgt id="52">2.83691e-06</wgt>
  <wgt id="53">2.82224e-06</wgt>
</rwgt>
</event>
<event>
 10      0 +2.8251000e-06 2.79309800e+02 7.54677100e-03 1.02691800e-01
        2 -1    0    0  502    0 +0.00000000000e+00 +0.00000000000e+00 +1.16152133270e+03  1.16152133270e+03  0.00000000000e+00 0.0000e+00 -1.0000e+00
        2 -1    0    0  501    0 +0.00000000000e+00 +0.00000000000e+00 -1.91868080900e+02  1.91868080900e+02  0.00000000000e+00 0.0000e+00 -1.0000e+00
       24  2    1    2    0    0 -7.38179686641e+01 -1.34259595520e+02 -9.75544669600e+00  1.73828221830e+02  8.15251524227e+01 0.0000e+00 0.0000e+00
        2  1    3    3  503    0 -6.52691554984e+01 -1.11261931362e+02 -3.98417174855e+01  1.35006083130e+02  0.00000000000e+00 0.0000e+00 -1.0000e+00
       -1  1    3    3    0  503 -8.54881316563e+00 -2.29976641587e+01 +3.00862707895e+01  3.88221387009e+01  0.00000000000e+00 0.0000e+00 1.0000e+00
       24  2    1    2    0    0 +1.19249256898e+02 -1.31150592850e+01 +7.40142147496e+02  7.54413320734e+02  8.32866733023e+01 0.0000e+00 0.0000e+00
        4  1    6    6  504    0 +3.37235643271e+01 -9.48962319335e+00 +4.63681890473e+02  4.65003470194e+02  0.00000000000e+00 0.0000e+00 -1.0000e+00
       -3  1    6    6    0  504 +8.55256925706e+01 -3.62543609169e+00 +2.76460257023e+02  2.89409850540e+02  0.00000000000e+00 0.0000e+00 1.0000e+00
        1  1    1    2  501    0 +3.57570899950e+01 +1.13397107877e+02 +2.96982289211e+02  3.19899911949e+02  0.00000000000e+00 0.0000e+00 -1.0000e+00
        1  1    1    2  502    0 -8.11883782286e+01 +3.39775469285e+01 -5.77157382113e+01  1.05247959087e+02  0.00000000000e+00 0.0000e+00 -1.0000e+00
#  0.1300000e+05  0.1300000e+05  0.1300000e+05  0.1300000e+05
<mgrwt>
<rscale>  2 0.27718094e+03</rscale>
<asrwt>0</asrwt>
<pdfrwt beam="1">  1        2 0.17869559e+00 0.27930980e+03</pdfrwt>
<pdfrwt beam="2">  1        2 0.29518166e-01 0.27089122e+03</pdfrwt>
<totfact> 0.62379327e+00</totfact>
</mgrwt>
<clustering>
<clus scale="   88.702">  3  6 -1 -1</clus>
<clus scale="  118.801">  4  5 -1 -1</clus>
<clus scale="  270.891">  2  3  1 -1</clus>
<clus scale="  279.310">  1  3  2 -1</clus>
</clustering>
<rwgt>
  <wgt id="1">4.44888e-06</wgt>
  <wgt id="2">2.97946e-06</wgt>
  <wgt id="3">2.13874e-06</wgt>
  <wgt id="4">4.21839e-06</wgt>
  <wgt id="5">2.8251e-06</wgt>
  <wgt id="6">2.02794e-06</wgt>
  <wgt id="7">3.98625e-06</wgt>
  <wgt id="8">2.66963e-06</wgt>
  <wgt id="9">1.91634e-06</wgt>
  <wgt id="10">2.8251e-06</wgt>
  <wgt id="11">2.8251e-06</wgt>
  <wgt id="12">2.8251e-06</wgt>
  <wgt id="13">2.8251e-06</wgt>
  <wgt id="14">2.82855e-06</wgt>
  <wgt id="15">2.82222e-06</wgt>
  <wgt id="16">2.82349e-06</wgt>
  <wgt id="17">2.82674e-06</wgt>
  <wgt id="18">2.81369e-06</wgt>
  <wgt id="19">2.84197e-06</wgt>
  <wgt id="20">2.81727e-06</wgt>
  <wgt id="21">2.8303e-06</wgt>
  <wgt id="22">2.83104e-06</wgt>
  <wgt id="23">2.81665e-06</wgt>
  <wgt id="24">2.85802e-06</wgt>
  <wgt id="25">2.80474e-06</wgt>
  <wgt id="26">2.82474e-06</wgt>
  <wgt id="27">2.82563e-06</wgt>
  <wgt id="28">2.85899e-06</wgt>
  <wgt id="29">2.81273e-06</wgt>
  <wgt id="30">2.83245e-06</wgt>
  <wgt id="31">2.81538e-06</wgt>
  <wgt id="32">2.82922e-06</wgt>
  <wgt id="33">2.82112e-06</wgt>
  <wgt id="34">2.79318e-06</wgt>
  <wgt id="35">2.88328e-06</wgt>
  <wgt id="36">2.83425e-06</wgt>
  <wgt id="37">2.81995e-06</wgt>
  <wgt id="38">2.81698e-06</wgt>
  <wgt id="39">2.82904e-06</wgt>
  <wgt id="40">2.8264e-06</wgt>
  <wgt id="41">2.82426e-06</wgt>
  <wgt id="42">2.84395e-06</wgt>
  <wgt id="43">2.78982e-06</wgt>
  <wgt id="44">2.83277e-06</wgt>
  <wgt id="45">2.82218e-06</wgt>
  <wgt id="46">2.82242e-06</wgt>
  <wgt id="47">2.82714e-06</wgt>
  <wgt id="48">2.80326e-06</wgt>
  <wgt id="49">2.83713e-06</wgt>
  <wgt id="50">2.81507e-06</wgt>
  <wgt id="51">2.83341e-06</wgt>
  <wgt id="52">2.82976e-06</wgt>
  <wgt id="53">2.82374e-06</wgt>
</rwgt>
</event>
<event>
 11      0 +2.8251000e-06 1.22431300e+02 7.54677100e-03 1.15444500e-01
        2 -1    0    0  503    0 +0.00000000000e+00 +0.00000000000e+00 +3.45845143050e+03  3.45845143050e+03  0.00000000000e+00 0.0000e+00 -1.0000e+00
       21 -1    0    0  501  503 +0.00000000000e+00 +0.00000000000e+00 -5.05642336730e+02  5.05642336730e+02  0.00000000000e+00 0.0000e+00 1.0000e+00
       24  2    1    2    0    0 -5.77752315653e+01 -4.74912096867e+01 +3.05889615116e+03  3.06085479403e+03  7.99563269975e+01 0.0000e+00 0.0000e+00
        4  1    3    3  504    0 -6.06689257020e+01 -6.47868040218e+01 +2.77388865682e+03  2.77530833043e+03  0.00000000000e+00 0.0000e+00 -1.0000e+00
       -3  1    3    3    0  504 +2.89369413678e+00 +1.72955943350e+01 +2.85007494331e+02  2.85546463599e+02  0.00000000000e+00 0.0000e+00 1.0000e+00
       24  2    1    2    0    0 -3.76439620444e+00 +1.44313603680e+02 -4.40738540068e+02  4.70771954045e+02  8.08404918842e+01 0.0000e+00 0.0000e+00
        2  1    6    6  505    0 +1.41044434025e+00 -1.04094191214e+01 -2.35634634049e+01  2.57988791872e+01  0.00000000000e+00 0.0000e+00 -1.0000e+00
       -1  1    6    6    0  505 -5.17484054469e+00 +1.54723022801e+02 -4.17175076664e+02  4.44973074858e+02  0.00000000000e+00 0.0000e+00 1.0000e+00
        1  1    1    2  501    0 +1.58481752007e+01 -5.05547170225e+01 -6.08386274274e+00  5.33287676239e+01  0.00000000000e+00 0.0000e+00 -1.0000e+00
        1  1    1    2  502    0 -4.79903122034e+01 +1.84634549856e+01 +1.25791255306e+02  1.35894845917e+02  0.00000000000e+00 0.0000e+00 -1.0000e+00
       -2  1    1    2    0  502 +9.36817647724e+01 -6.47311319562e+01 +2.14944090119e+02  2.43243405609e+02  0.00000000000e+00 0.0000e+00 1.0000e+00
#  0.1300000e+05  0.1300000e+05  0.5304106e+02  0.1300000e+05  0.1300000e+05
<mgrwt>
<rscale>  2 0.11916260e+03</rscale>
<asrwt>  1 0.53041062e+02</asrwt>
<pdfrwt beam="1">  2       21       -1 0.77791129e-01 0.72683764e-01 0.53041062e+02 0.12243134e+03</pdfrwt>
<pdfrwt beam="2">  1        2 0.53206945e+00 0.10987075e+03</pdfrwt>
<totfact> 0.43577567e-02</totfact>
</mgrwt>
<clustering>
<clus scale="   53.041">  2  5  1 -1</clus>
<clus scale="  109.871">  1  3  2 -1</clus>
<clus scale="   66.659">  1  6  2 -1</clus>
<clus scale="   92.316">  1  7  2 -1</clus>
<clus scale="  122.431">  2  3  1 -1</clus>
</clustering>
<rwgt>
  <wgt id="1">6.40644e-06</wgt>
  <wgt id="2">4.04599e-06</wgt>
  <wgt id="3">2.79295e-06</wgt>
  <wgt id="4">4.47328e-06</wgt>
  <wgt id="5">2.8251e-06</wgt>
  <wgt id="6">1.95017e-06</wgt>
  <wgt id="7">3.39376e-06</wgt>
  <wgt id="8">2.14333e-06</wgt>
  <wgt id="9">1.47954e-06</wgt>
  <wgt id="10">3.69321e-06</wgt>
  <wgt id="11">2.8251e-06</wgt>
  <wgt id="12">2.29252e-06</wgt>
  <wgt id="13">2.8251e-06</wgt>
  <wgt id="14">2.83337e-06</wgt>
  <wgt id="15">2.81846e-06</wgt>
  <wgt id="16">2.80776e-06</wgt>
  <wgt id="17">2.84481e-06</wgt>
  <wgt id="18">2.81583e-06</wgt>
  <wgt id="19">2.83891e-06</wgt>
  <wgt id="20">2.82221e-06</wgt>
  <wgt id="21">2.82711e-06</wgt>
  <wgt id="22">2.82908e-06</wgt>
  <wgt id="23">2.81965e-06</wgt>
  <wgt id="24">2.8444e-06</wgt>
  <wgt id="25">2.81321e-06</wgt>
  <wgt id="26">2.82705e-06</wgt>
  <wgt id="27">2.82253e-06</wgt>
  <wgt id="28">2.81587e-06</wgt>
  <wgt id="29">2.82811e-06</wgt>
  <wgt id="30">2.80754e-06</wgt>
  <wgt id="31">2.84631e-06</wgt>
  <wgt id="32">2.81242e-06</wgt>
  <wgt id="33">2.83712e-06</wgt>
  <wgt id="34">2.82653e-06</wgt>
  <wgt id="35">2.82375e-06</wgt>
  <wgt id="36">2.82573e-06</wgt>
  <wgt id="37">2.82591e-06</wgt>
  <wgt id="38">2.81112e-06</wgt>
  <wgt id="39">2.8323e-06</wgt>
  <wgt id="40">2.83879e-06</wgt>
  <wgt id="41">2.81095e-06</wgt>
  <wgt id="42">2.82082e-06</wgt>
  <wgt id="43">2.83433e-06</wgt>
  <wgt id="44">2.82899e-06</wgt>
  <wgt id="45">2.8236e-06</wgt>
  <wgt id="46">2.82998e-06</wgt>
  <wgt id="47">2.82214e-06</wgt>
  <wgt id="48">2.83547e-06</wgt>
  <wgt id="49">2.82611e-06</wgt>
  <wgt id="50">2.85164e-06</wgt>
  <wgt id="51">2.8077e-06</wgt>
  <wgt id="52">2.83189e-06</wgt>
  <wgt id="53">2.82379e-06</wgt>
</rwgt>
</event>
<event>
 11      0 +2.8251000e-06 2.77956800e+02 7.54677100e-03 1.04714200e-01
        2 -1    0    0  501    0 +0.00000000000e+00 +0.00000000000e+00 +1.41000721450e+03  1.41000721450e+03  0.00000000000e+00 0.0000e+00 -1.0000e+00
        2 -1    0    0  503    0 +0.00000000000e+00 +0.00000000000e+00 -5.78657297860e+02  5.78657297860e+02  0.00000000000e+00 0.0000e+00 -1.0000e+00
       24  2    1    2    0    0 +7.56879144622e+01 -8.46883936793e+01 +5.73669906464e+02  5.90512388216e+02  8.18958767868e+01 0.0000e+00 0.0000e+00
       12  1    3    3    0    0 +6.75456267393e+01 -7.45933405919e+01 +5.66923844947e+02  5.75785744980e+02  0.00000000000e+00 0.0000e+00 -1.0000e+00
      -11  1    3    3    0    0 +8.14228772290e+00 -1.00950530874e+01 +6.74606151699e+00  1.47266432365e+01  0.00000000000e+00 0.0000e+00 1.0000e+00
       24  2    1    2    0    0 -1.99437991488e+02 -1.38701457738e+02 +1.08968807263e+01  2.55786816545e+02  7.93381792144e+01 0.0000e+00 0.0000e+00
       16  1    6    6    0    0 -1.42729497116e+02 -7.32333287860e+01 +3.83227015182e+01  1.64934712064e+02  0.00000000000e+00 0.0000e+00 -1.0000e+00
      -15  1    6    6    0    0 -5.67084943721e+01 -6.54681289516e+01 -2.74258207919e+01  9.08521044802e+01  1.77700000000e+00 0.0000e+00 1.0000e+00
       21  1    1    2  503  502 -2.96285123400e+01 +8.35562253535e+01 +5.64415339682e+01  1.05095852894e+02  0.00000000000e+00 0.0000e+00 -1.0000e+00
        1  1    1    2  501    0 +2.60962875070e+02 -1.13548673562e+02 -3.37792827977e+02  4.41700031770e+02  0.00000000000e+00 0.0000e+00 -1.0000e+00
        1  1    1    2  502    0 -1.07584285704e+02 +2.53382299625e+02 +5.28134423459e+02  5.95569422936e+02  0.00000000000e+00 0.0000e+00 -1.0000e+00
#  0.1300000e+05  0.1300000e+05  0.7367717e+02  0.1300000e+05  0.1300000e+05
<mgrwt>
<rscale>  2 0.23905098e+03</rscale>
<asrwt>  1 0.73677171e+02</asrwt>
<pdfrwt beam="1">  1        2 0.21692419e+00 0.13967375e+03</pdfrwt>
<pdfrwt beam="2">  1        2 0.89024200e-01 0.25530666e+03</pdfrwt>
<totfact> 0.18352292e-01</totfact>
</mgrwt>
<clustering>
<clus scale="   73.677">  5  7 -1 -1</clus>
<clus scale="  139.674">  1  3  2 -1</clus>
<clus scale="  255.307">  2  4  1 -1</clus>
<clus scale="  273.358">  2  6  1 -1</clus>
<clus scale="  302.616">  1  3  2 -1</clus>
</clustering>
<rwgt>
  <wgt id="1">4.89464e-06</wgt>
  <wgt id="2">3.24831e-06</wgt>
  <wgt id="3">2.31732e-06</wgt>
  <wgt id="4">4.25694e-06</wgt>
  <wgt id="5">2.8251e-06</wgt>
  <wgt id="6">2.01541e-06</wgt>
  <wgt id="7">3.75875e-06</wgt>
  <wgt id="8">2.49448e-06</wgt>
  <wgt id="9">1.77954e-06</wgt>
  <wgt id="10">3.63149e-06</wgt>
  <wgt id="11">2.8251e-06</wgt>
  <wgt id="12">2.31628e-06</wgt>
  <wgt id="13">2.8251e-06</wgt>
  <wgt id="14">2.82803e-06</wgt>
  <wgt id="15">2.8227e-06</wgt>
  <wgt id="16">2.81441e-06</wgt>
  <wgt id="17">2.83693e-06</wgt>
  <wgt id="18">2.81171e-06</wgt>
  <wgt id="19">2.84492e-06</wgt>
  <wgt id="20">2.8143e-06</wgt>
  <wgt id="21">2.83235e-06</wgt>
  <wgt id="22">2.83254e-06</wgt>
  <wgt id="23">2.81445e-06</wgt>
  <wgt id="24">2.86647e-06</wgt>
  <wgt id="25">2.79956e-06</wgt>
  <wgt id="26">2.82458e-06</wgt>
  <wgt id="27">2.82574e-06</wgt>
  <wgt id="28">2.87387e-06</wgt>
  <wgt id="29">2.80742e-06</wgt>
  <wgt id="30">2.83046e-06</wgt>
  <wgt id="31">2.81818e-06</wgt>
  <wgt id="32">2.82824e-06</wgt>
  <wgt id="33">2.82204e-06</wgt>
  <wgt id="34">2.78682e-06</wgt>
  <wgt id="35">2.89584e-06</wgt>
  <wgt id="36">2.84553e-06</wgt>
  <wgt id="37">2.81429e-06</wgt>
  <wgt id="38">2.81415e-06</wgt>
  <wgt id="39">2.83064e-06</wgt>
  <wgt id="40">2.82711e-06</wgt>
  <wgt id="41">2.8234e-06</wgt>
  <wgt id="42">2.84851e-06</wgt>
  <wgt id="43">2.78579e-06</wgt>
  <wgt id="44">2.83353e-06</wgt>
  <wgt id="45">2.82194e-06</wgt>
  <wgt id="46">2.82452e-06</wgt>
  <wgt id="47">2.82562e-06</wgt>
  <wgt id="48">2.81338e-06</wgt>
  <wgt id="49">2.83387e-06</wgt>
  <wgt id="50">2.81546e-06</wgt>
  <wgt id="51">2.83868e-06</wgt>
  <wgt id="52">2.83615e-06</wgt>
  <wgt id="53">2.82221e-06</wgt>
</rwgt>
</event>
<event>
 10      0 +2.8251000e-06 1.60714400e+02 7.54677100e-03 1.11508300e-01
        2 -1    0    0  502    0 +0.00000000000e+00 +0.00000000000e+00 +1.83509523970e+03  1.83509523970e+03  0.00000000000e+00 0.0000e+00 -1.0000e+00
        2 -1    0    0  501    0 +0.00000000000e+00 +0.00000000000e+00 -1.19799264460e+03  1.19799264460e+03  0.00000000000e+00 0.0000e+00 -1.0000e+00
       24  2    1    2    0    0 -8.78354851871e+01 +4.06487854336e+01 +7.51190461954e+02  7.62154512036e+02  8.49999639479e+01 0.0000e+00 0.0000e+00
        2  1    3    3  503    0 -8.87773222064e+01 +5.14270659899e+01 +7.37986221057e+02  7.45083766113e+02  0.00000000000e+00 0.0000e+00 -1.0000e+00
       -1  1    3    3    0  503 +9.41837019266e-01 -1.07782805563e+01 +1.32042408969e+01  1.70707459236e+01  0.00000000000e+00 0.0000e+00 1.0000e+00
       24  2    1    2    0    0 +9.94901289650e+01 +9.59714654635e+01 -2.37918168072e+02  2.87084404167e+02  8.18754692939e+01 0.0000e+00 0.0000e+00
        4  1    6    6  504    0 +1.11356600319e+01 +2.28749499258e+01 -1.19751549386e+02  1.22424261643e+02  0.00000000000e+00 0.0000e+00 -1.0000e+00
       -3  1    6    6    0  504 +8.83544689331e+01 +7.30965155377e+01 -1.18166618687e+02  1.64660142524e+02  0.00000000000e+00 0.0000e+00 1.0000e+00
        1  1    1    2  501    0 +1.55467695921e+01 +1.35451323038e+02 -9.07092795408e+02  9.17281910013e+02  0.00000000000e+00 0.0000e+00 -1.0000e+00
        1  1    1    2  502    0 -2.72014133699e+01 -2.72071573935e+02 +1.03092309663e+03  1.06656705808e+03  0.00000000000e+00 0.0000e+00 -1.0000e+00
#  0.1300000e+05  0.1300000e+05  0.1300000e+05  0.1300000e+05
<mgrwt>
<rscale>  2 0.15135064e+03</rscale>
<asrwt>0</asrwt>
<pdfrwt beam="1">  1        2 0.28232234e+00 0.12640735e+03</pdfrwt>
<pdfrwt beam="2">  1        2 0.18430656e+00 0.16071444e+03</pdfrwt>
<totfact> 0.40674394e-01</totfact>
</mgrwt>
<clustering>
<clus scale="  126.407">  1  3  2 -1</clus>
<clus scale="  137.459">  1  5  2 -1</clus>
<clus scale="  139.147">  1  6  2 -1</clus>
<clus scale="  160.714">  1  3  2 -1</clus>
</clustering>
<rwgt>
  <wgt id="1">5.57252e-06</wgt>
  <wgt id="2">3.58365e-06</wgt>
  <wgt id="3">2.50394e-06</wgt>
  <wgt id="4">4.39298e-06</wgt>
  <wgt id="5">2.8251e-06</wgt>
  <wgt id="6">1.97393e-06</wgt>
  <wgt id="7">3.58541e-06</wgt>
  <wgt id="8">2.30575e-06</wgt>
  <wgt id="9">1.61106e-06</wgt>
  <wgt id="10">2.8251e-06</wgt>
  <wgt id="11">2.8251e-06</wgt>
  <wgt id="12">2.8251e-06</wgt>
  <wgt id="13">2.8251e-06</wgt>
  <wgt id="14">2.82815e-06</wgt>
  <wgt id="15">2.82262e-06</wgt>
  <wgt id="16">2.80523e-06</wgt>
  <wgt id="17">2.84733e-06</wgt>
  <wgt id="18">2.81037e-06</wgt>
  <wgt id="19">2.847e-06</wgt>
  <wgt id="20">2.8186e-06</wgt>
  <wgt id="21">2.82945e-06</wgt>
  <wgt id="22">2.83413e-06</wgt>
  <wgt id="23">2.81229e-06</wgt>
  <wgt id="24">2.87403e-06</wgt>
  <wgt id="25">2.79507e-06</wgt>
  <wgt id="26">2.82599e-06</wgt>
  <wgt id="27">2.82391e-06</wgt>
  <wgt id="28">2.87715e-06</wgt>
  <wgt id="29">2.80631e-06</wgt>
  <wgt id="30">2.83138e-06</wgt>
  <wgt id="31">2.81726e-06</wgt>
  <wgt id="32">2.825e-06</wgt>
  <wgt id="33">2.82518e-06</wgt>
  <wgt id="34">2.78037e-06</wgt>
  <wgt id="35">2.90805e-06</wgt>
  <wgt id="36">2.84507e-06</wgt>
  <wgt id="37">2.81419e-06</wgt>
  <wgt id="38">2.81465e-06</wgt>
  <wgt id="39">2.8309e-06</wgt>
  <wgt id="40">2.83093e-06</wgt>
  <wgt id="41">2.81944e-06</wgt>
  <wgt id="42">2.85024e-06</wgt>
  <wgt id="43">2.78582e-06</wgt>
  <wgt id="44">2.83071e-06</wgt>
  <wgt id="45">2.82322e-06</wgt>
  <wgt id="46">2.82246e-06</wgt>
  <wgt id="47">2.82671e-06</wgt>
  <wgt id="48">2.83087e-06</wgt>
  <wgt id="49">2.82826e-06</wgt>
  <wgt id="50">2.81819e-06</wgt>
  <wgt id="51">2.83657e-06</wgt>
  <wgt id="52">2.84379e-06</wgt>
  <wgt id="53">2.8205e-06</wgt>
</rwgt>
</event>
<event>
 10      0 +2.8251000e-06 4.30858300e+02 7.54677100e-03 1.01077500e-01
       -1 -1    0    0    0  501 +0.00000000000e+00 +0.00000000000e+00 +2.36350046760e+02  2.36350046760e+02  0.00000000000e+00 0.0000e+00 1.0000e+00
       -3 -1    0    0    0  502 +0.00000000000e+00 +0.00000000000e+00 -9.37638871530e+02  9.37638871530e+02  0.00000000000e+00 0.0000e+00 1.0000e+00
       24  2    1    2    0    0 +2.01355785920e+02 +7.50516614200e+00 +2.33107772172e+01  2.17738190562e+02  7.91583681767e+01 0.0000e+00 0.0000e+00
        4  1    3    3  503    0 +2.94884318326e+00 +9.77180392878e-01 -1.52074603203e+01  1.55215143280e+01  0.00000000000e+00 0.0000e+00 -1.0000e+00
       -3  1    3    3    0  503 +1.98406942737e+02 +6.52798574913e+00 +3.85182375375e+01  2.02216676234e+02  0.00000000000e+00 0.0000e+00 1.0000e+00
       24  2    1    2    0    0 +6.79153368879e+01 -5.84647347167e+01 -5.59576724458e+02  5.72401930292e+02  8.05434110037e+01 0.0000e+00 0.0000e+00
        4  1    6    6  504    0 -1.85338272859e+01 -1.19357448806e+01 -1.18247394881e+02  1.20284708736e+02  0.00000000000e+00 0.0000e+00 -1.0000e+00
       -3  1    6    6    0  504 +8.64491641738e+01 -4.65289898361e+01 -4.41329329578e+02  4.52117221555e+02  0.00000000000e+00 0.0000e+00 1.0000e+00
       -2  1    1    2    0  502 -1.28113468444e+02 -7.11725151694e+00 -1.89911907071e+02  2.29194782910e+02  0.00000000000e+00 0.0000e+00 1.0000e+00
       -4  1    1    2    0  501 -1.41157654364e+02 +5.80768200917e+01 +2.48890295419e+01  1.54654014526e+02  0.00000000000e+00 0.0000e+00 1.0000e+00
#  0.1300000e+05  0.1300000e+05  0.1300000e+05  0.1300000e+05
<mgrwt>
<rscale>  2 0.31328776e+03</rscale>
<asrwt>0</asrwt>
<pdfrwt beam="1">  1       -1 0.36361546e-01 0.43085827e+03</pdfrwt>
<pdfrwt beam="2">  1       -3 0.14425213e+00 0.12043991e+03</pdfrwt>
<totfact> 0.17931117e-01</totfact>
</mgrwt>
<clustering>
<clus scale="  120.440">  2  4  1 -1</clus>
<clus scale="   98.229">  3  5 -1 -1</clus>
<clus scale="  137.878">  2  6  1 -1</clus>
<clus scale="  430.858">  1  3  2 -1</clus>
</clustering>
<rwgt>
  <wgt id="1">4.47072e-06</wgt>
  <wgt id="2">3.01643e-06</wgt>
  <wgt id="3">2.17609e-06</wgt>
  <wgt id="4">4.18716e-06</wgt>
  <wgt id="5">2.8251e-06</wgt>
  <wgt id="6">2.03806e-06</wgt>
  <wgt id="7">3.87987e-06</wgt>
  <wgt id="8">2.61777e-06</wgt>
  <wgt id="9">1.8885e-06</wgt>
  <wgt id="10">2.8251e-06</wgt>
  <wgt id="11">2.8251e-06</wgt>
  <wgt id="12">2.8251e-06</wgt>
  <wgt id="13">2.8251e-06</wgt>
  <wgt id="14">2.8365e-06</wgt>
  <wgt id="15">2.81564e-06</wgt>
  <wgt id="16">2.79664e-06</wgt>
  <wgt id="17">2.85635e-06</wgt>
  <wgt id="18">2.86783e-06</wgt>
  <wgt id="19">2.76109e-06</wgt>
  <wgt id="20">2.80059e-06</wgt>
  <wgt id="21">2.84121e-06</wgt>
  <wgt id="22">2.89869e-06</wgt>
  <wgt id="23">2.7209e-06</wgt>
  <wgt id="24">2.76447e-06</wgt>
  <wgt id="25">2.86172e-06</wgt>
  <wgt id="26">2.81857e-06</wgt>
  <wgt id="27">2.834e-06</wgt>
  <wgt id="28">2.82826e-06</wgt>
  <wgt id="29">2.82398e-06</wgt>
  <wgt id="30">2.80262e-06</wgt>
  <wgt id="31">2.8528e-06</wgt>
  <wgt id="32">2.82975e-06</wgt>
  <wgt id="33">2.82062e-06</wgt>
  <wgt id="34">2.83797e-06</wgt>
  <wgt id="35">2.81028e-06</wgt>
  <wgt id="36">2.81023e-06</wgt>
  <wgt id="37">2.83381e-06</wgt>
  <wgt id="38">2.77366e-06</wgt>
  <wgt id="39">2.84947e-06</wgt>
  <wgt id="40">2.82144e-06</wgt>
  <wgt id="41">2.83228e-06</wgt>
  <wgt id="42">2.80908e-06</wgt>
  <wgt id="43">2.83364e-06</wgt>
  <wgt id="44">2.85606e-06</wgt>
  <wgt id="45">2.81289e-06</wgt>
  <wgt id="46">2.74238e-06</wgt>
  <wgt id="47">2.87452e-06</wgt>
  <wgt id="48">2.80957e-06</wgt>
  <wgt id="49">2.83479e-06</wgt>
  <wgt id="50">2.83607e-06</wgt>
  <wgt id="51">2.82919e-06</wgt>
  <wgt id="52">2.93487e-06</wgt>
  <wgt id="53">2.83135e-06</wgt>
</rwgt>
</event>
<event>
 10      0 +2.8251000e-06 9.45599200e+01 7.54677100e-03 1.19686600e-01
        2 -1    0    0  501    0 +0.00000000000e+00 +0.00000000000e+00 +5.72731162590e+02  5.72731162590e+02  0.00000000000e+00 0.0000e+00 -1.0000e+00
        2 -1    0    0  502    0 +0.00000000000e+00 +0.00000000000e+00 -6.54057710290e+02  6.54057710290e+02  0.00000000000e+00 0.0000e+00 -1.0000e+00
       24  2    1    2    0    0 +4.13325661251e+00 +3.19070091149e+01 +4.64766921002e+02  4.72706092775e+02  8.00475998883e+01 0.0000e+00 0.0000e+00
        4  1    3    3  503    0 +2.43152414687e+01 +4.62061650726e+01 +3.99711606909e+02  4.03107441455e+02  0.00000000000e+00 0.0000e+00 -1.0000e+00
       -3  1    3    3    0  503 -2.01819848562e+01 -1.42991559577e+01 +6.50553140928e+01  6.95986513199e+01  0.00000000000e+00 0.0000e+00 1.0000e+00
       24  2    1    2    0    0 -3.78425441939e+01 +1.39282238324e+01 -5.38572676475e+02  5.46044711655e+02  8.04875500365e+01 0.0000e+00 0.0000e+00
        2  1    6    6  504    0 -6.26242937841e+01 +1.52268017414e+01 -3.55069432514e+02  3.60871112128e+02  0.00000000000e+00 0.0000e+00 -1.0000e+00
       -1  1    6    6    0  504 +2.47817495902e+01 -1.29857790893e+00 -1.83503243961e+02  1.85173599527e+02  0.00000000000e+00 0.0000e+00 1.0000e+00
        1  1    1    2  501    0 -4.22613861384e+01 -9.84335335046e+01 -3.31735776518e+01  1.12141301628e+02  0.00000000000e+00 0.0000e+00 -1.0000e+00
        1  1    1    2  502    0 +7.59706737198e+01 +5.25983005573e+01 +2.56527854250e+01  9.58967668225e+01  0.00000000000e+00 0.0000e+00 -1.0000e+00
#  0.1300000e+05  0.1300000e+05  0.1300000e+05  0.1300000e+05
<mgrwt>
<rscale>  2 0.93642368e+02</rscale>
<asrwt>0</asrwt>
<pdfrwt beam="1">  1        2 0.88112487e-01 0.86638011e+02</pdfrwt>
<pdfrwt beam="2">  1        2 0.10062426e+00 0.90083913e+02</pdfrwt>
<totfact> 0.57399994e+00</totfact>
</mgrwt>
<clustering>
<clus scale="   86.638">  1  3  2 -1</clus>
<clus scale="   90.084">  2  4  1 -1</clus>
<clus scale="   99.258">  1  6  2 -1</clus>
<clus scale="   99.258">  1  3  2 -1</clus>
</clustering>
<rwgt>
  <wgt id="1">4.86237e-06</wgt>
  <wgt id="2">3.00836e-06</wgt>
  <wgt id="3">2.05054e-06</wgt>
  <wgt id="4">4.56618e-06</wgt>
  <wgt id="5">2.8251e-06</wgt>
  <wgt id="6">1.92563e-06</wgt>
  <wgt id="7">4.27493e-06</wgt>
  <wgt id="8">2.64491e-06</wgt>
  <wgt id="9">1.8028e-06</wgt>
  <wgt id="10">2.8251e-06</wgt>
  <wgt id="11">2.8251e-06</wgt>
  <wgt id="12">2.8251e-06</wgt>
  <wgt id="13">2.8251e-06</wgt>
  <wgt id="14">2.82784e-06</wgt>
  <wgt id="15">2.8228e-06</wgt>
  <wgt id="16">2.82296e-06</wgt>
  <wgt id="17">2.82731e-06</wgt>
  <wgt id="18">2.81266e-06</wgt>
  <wgt id="19">2.84348e-06</wgt>
  <wgt id="20">2.80986e-06</wgt>
  <wgt id="21">2.83532e-06</wgt>
  <wgt id="22">2.83121e-06</wgt>
  <wgt id="23">2.81633e-06</wgt>
  <wgt id="24">2.8604e-06</wgt>
  <wgt id="25">2.80322e-06</wgt>
  <wgt id="26">2.82314e-06</wgt>
  <wgt id="27">2.82773e-06</wgt>
  <wgt id="28">2.86867e-06</wgt>
  <wgt id="29">2.80925e-06</wgt>
  <wgt id="30">2.82982e-06</wgt>
  <wgt id="31">2.81889e-06</wgt>
  <wgt id="32">2.83039e-06</wgt>
  <wgt id="33">2.81997e-06</wgt>
  <wgt id="34">2.79181e-06</wgt>
  <wgt id="35">2.88625e-06</wgt>
  <wgt id="36">2.84584e-06</wgt>
  <wgt id="37">2.81513e-06</wgt>
  <wgt id="38">2.81465e-06</wgt>
  <wgt id="39">2.8301e-06</wgt>
  <wgt id="40">2.82507e-06</wgt>
  <wgt id="41">2.82562e-06</wgt>
  <wgt id="42">2.8469e-06</wgt>
  <wgt id="43">2.78572e-06</wgt>
  <wgt id="44">2.83735e-06</wgt>
  <wgt id="45">2.82027e-06</wgt>
  <wgt id="46">2.82682e-06</wgt>
  <wgt id="47">2.82452e-06</wgt>
  <wgt id="48">2.79682e-06</wgt>
  <wgt id="49">2.83934e-06</wgt>
  <wgt id="50">2.81275e-06</wgt>
  <wgt id="51">2.8407e-06</wgt>
  <wgt id="52">2.82829e-06</wgt>
  <wgt id="53">2.82403e-06</wgt>
</rwgt>
</event>
<event>
 11      0 +2.8251000e-06 1.09966500e+03 7.54677100e-03 9.07934800e-02
        2 -1    0    0  501    0 +0.00000000000e+00 +0.00000000000e+00 +9.17977527810e+02  9.17977527810e+02  0.00000000000e+00 0.0000e+00 -1.0000e+00
        2 -1    0    0  503    0 +0.00000000000e+00 +0.00000000000e+00 -1.36785842650e+03  1.36785842650e+03  0.00000000000e+00 0.0000e+00 -1.0000e+00
       24  2    1    2    0    0 +3.31399555524e+02 +8.77816769693e+01 +2.86507289020e+02  4.53946468120e+02  8.03099062648e+01 0.0000e+00 0.0000e+00
       12  1    3    3    0    0 +3.07839705345e+02 +6.04548974284e+01 +2.39508850857e+02  3.94695538927e+02  0.00000000000e+00 0.0000e+00 -1.0000e+00
      -11  1    3    3    0    0 +2.35598501792e+01 +2.73267795409e+01 +4.69984381624e+01  5.92509291931e+01  0.00000000000e+00 0.0000e+00 1.0000e+00
       24  2    1    2    0    0 +1.81538617687e+02 -1.38780280063e+02 -4.00530785075e+02  4.67928691121e+02  7.94739852736e+01 0.0000e+00 0.0000e+00
        4  1    6    6  504    0 +1.27109928383e+02 -1.13225527395e+02 -2.23357597793e+02  2.80830145176e+02  0.00000000000e+00 0.0000e+00 -1.0000e+00
       -3  1    6    6    0  504 +5.44286893046e+01 -2.55547526680e+01 -1.77173187282e+02  1.87098545946e+02  0.00000000000e+00 0.0000e+00 1.0000e+00
       21  1    1    2  503  502 +6.12791030830e+01 +5.40602387073e+01 -2.78397551400e+01  8.63289629847e+01  0.00000000000e+00 0.0000e+00 -1.0000e+00
        1  1    1    2  501    0 -5.78510943680e+02 +6.08937539801e+01 +3.08050097060e+02  6.58238424532e+02  0.00000000000e+00 0.0000e+00 -1.0000e+00
        1  1    1    2  502    0 +4.29366738534e+00 -6.39553895937e+01 -6.16067744555e+02  6.19393407551e+02  0.00000000000e+00 0.0000e+00 -1.0000e+00
#  0.1300000e+05  0.1300000e+05  0.8171927e+02  0.1300000e+05  0.1300000e+05
<mgrwt>
<rscale>  2 0.75862598e+03</rscale>
<asrwt>  1 0.81719272e+02</asrwt>
<pdfrwt beam="1">  1        2 0.14122731e+00 0.10996653e+04</pdfrwt>
<pdfrwt beam="2">  2        2        2 0.21043976e+00 0.19495305e+00 0.81719272e+02 0.10996653e+04</pdfrwt>
<totfact> 0.72808702e-02</totfact>
</mgrwt>
<clustering>
<clus scale="   63.442">  3  7 -1 -1</clus>
<clus scale="   81.719">  2  5  1 -1</clus>
<clus scale="  249.075">  2  4  1 -1</clus>
<clus scale="  531.650">  2  6  1 -1</clus>
<clus scale=" 1099.665">  1  3  2 -1</clus>
</clustering>
<rwgt>
  <wgt id="1">4.58235e-06</wgt>
  <wgt id="2">3.23586e-06</wgt>
  <wgt id="3">2.40987e-06</wgt>
  <wgt id="4">4.00067e-06</wgt>
  <wgt id="5">2.8251e-06</wgt>
  <wgt id="6">2.10396e-06</wgt>
  <wgt id="7">3.54045e-06</wgt>
  <wgt id="8">2.50011e-06</wgt>
  <wgt id="9">1.86193e-06</wgt>
  <wgt id="10">3.61361e-06</wgt>
  <wgt id="11">2.8251e-06</wgt>
  <wgt id="12">2.32336e-06</wgt>
  <wgt id="13">2.8251e-06</wgt>
  <wgt id="14">2.82804e-06</wgt>
  <wgt id="15">2.82263e-06</wgt>
  <wgt id="16">2.80914e-06</wgt>
  <wgt id="17">2.84288e-06</wgt>
  <wgt id="18">2.81103e-06</wgt>
  <wgt id="19">2.84592e-06</wgt>
  <wgt id="20">2.81604e-06</wgt>
  <wgt id="21">2.83114e-06</wgt>
  <wgt id="22">2.83328e-06</wgt>
  <wgt id="23">2.81338e-06</wgt>
  <wgt id="24">2.87004e-06</wgt>
  <wgt id="25">2.79741e-06</wgt>
  <wgt id="26">2.82537e-06</wgt>
  <wgt id="27">2.82474e-06</wgt>
  <wgt id="28">2.87794e-06</wgt>
  <wgt id="29">2.80599e-06</wgt>
  <wgt id="30">2.83088e-06</wgt>
  <wgt id="31">2.81784e-06</wgt>
  <wgt id="32">2.82697e-06</wgt>
  <wgt id="33">2.82326e-06</wgt>
  <wgt id="34">2.78415e-06</wgt>
  <wgt id="35">2.90094e-06</wgt>
  <wgt id="36">2.84929e-06</wgt>
  <wgt id="37">2.81132e-06</wgt>
  <wgt id="38">2.81268e-06</wgt>
  <wgt id="39">2.83152e-06</wgt>
  <wgt id="40">2.82793e-06</wgt>
  <wgt id="41">2.82253e-06</wgt>
  <wgt id="42">2.84989e-06</wgt>
  <wgt id="43">2.78546e-06</wgt>
  <wgt id="44">2.83152e-06</wgt>
  <wgt id="45">2.8228e-06</wgt>
  <wgt id="46">2.82348e-06</wgt>
  <wgt id="47">2.82613e-06</wgt>
  <wgt id="48">2.82373e-06</wgt>
  <wgt id="49">2.83026e-06</wgt>
  <wgt id="50">2.81643e-06</wgt>
  <wgt id="51">2.83826e-06</wgt>
  <wgt id="52">2.8414e-06</wgt>
  <wgt id="53">2.82097e-06</wgt>
</rwgt>
</event>
<event>
 10      0 +2.8251000e-06 1.61192500e+03 7.54677100e-03 8.57675300e-02
        2 -1    0    0  502    0 +0.00000000000e+00 +0.00000000000e+00 +6.71016350060e+02  6.71016350060e+02  0.00000000000e+00 0.0000e+00 -1.0000e+00
        2 -1    0    0  501    0 +0.00000000000e+00 +0.00000000000e+00 -2.24180099490e+03  2.24180099490e+03  0.00000000000e+00 0.0000e+00 -1.0000e+00
       24  2    1    2    0    0 -4.18207512886e+01 +1.24466388130e+02 +5.78635029292e+02  5.98690918729e+02  7.98214384262e+01 0.0000e+00 0.0000e+00
       14  1    3    3    0    0 -6.38502246062e+01 +1.10346598833e+02 +4.77674626138e+02  4.94394853849e+02  0.00000000000e+00 0.0000e+00 -1.0000e+00
      -13  1    3    3    0    0 +2.20294733176e+01 +1.41197892963e+01 +1.00960403154e+02  1.04296064880e+02  0.00000000000e+00 0.0000e+00 1.0000e+00
       24  2    1    2    0    0 -3.75581701602e+01 -4.96198773980e+01 -1.22236163781e+03  1.22692144325e+03  8.54137338127e+01 0.0000e+00 0.0000e+00
        2  1    6    6  503    0 +4.86702280592e+00 -2.69442101738e+01 -9.46568479307e+02  9.46964394469e+02  0.00000000000e+00 0.0000e+00 -1.0000e+00
       -1  1    6    6    0  503 -4.24251929661e+01 -2.26756672242e+01 -2.75793158505e+02  2.79957048778e+02  0.00000000000e+00 0.0000e+00 1.0000e+00
        1  1    1    2  501    0 +9.45628516823e+00 -3.84098909970e+01 -9.87229253807e+02  9.88021427211e+02  0.00000000000e+00 0.0000e+00 -1.0000e+00
        1  1    1    2  502    0 +6.99226362806e+01 -3.64366197348e+01 +6.01712174874e+01  9.91835557744e+01  0.00000000000e+00 0.0000e+00 -1.0000e+00
#  0.1300000e+05  0.1300000e+05  0.1300000e+05  0.1300000e+05
<mgrwt>
<rscale>  2 0.12644797e+04</rscale>
<asrwt>0</asrwt>
<pdfrwt beam="1">  1        2 0.10323328e+00 0.16119255e+04</pdfrwt>
<pdfrwt beam="2">  1        2 0.34489246e+00 0.61039732e+03</pdfrwt>
<totfact> 0.24991831e-01</totfact>
</mgrwt>
<clustering>
<clus scale="   46.197">  3  5 -1 -1</clus>
<clus scale="   78.729">  4  6 -1 -1</clus>
<clus scale="  610.397">  2  4  1 -1</clus>
<clus scale=" 1611.925">  1  3  2 -1</clus>
</clustering>
<rwgt>
  <wgt id="1">4.70345e-06</wgt>
  <wgt id="2">3.39436e-06</wgt>
  <wgt id="3">2.5678e-06</wgt>
  <wgt id="4">3.91465e-06</wgt>
  <wgt id="5">2.8251e-06</wgt>
  <wgt id="6">2.13717e-06</wgt>
  <wgt id="7">3.33069e-06</wgt>
  <wgt id="8">2.40367e-06</wgt>
  <wgt id="9">1.81836e-06</wgt>
  <wgt id="10">2.8251e-06</wgt>
  <wgt id="11">2.8251e-06</wgt>
  <wgt id="12">2.8251e-06</wgt>
  <wgt id="13">2.8251e-06</wgt>
  <wgt id="14">2.82821e-06</wgt>
  <wgt id="15">2.82244e-06</wgt>
  <wgt id="16">2.8079e-06</wgt>
  <wgt id="17">2.84425e-06</wgt>
  <wgt id="18">2.81018e-06</wgt>
  <wgt id="19">2.84716e-06</wgt>
  <wgt id="20">2.81622e-06</wgt>
  <wgt id="21">2.83096e-06</wgt>
  <wgt id="22">2.83374e-06</wgt>
  <wgt id="23">2.81262e-06</wgt>
  <wgt id="24">2.8727e-06</wgt>
  <wgt id="25">2.79585e-06</wgt>
  <wgt id="26">2.82507e-06</wgt>
  <wgt id="27">2.82508e-06</wgt>
  <wgt id="28">2.86633e-06</wgt>
  <wgt id="29">2.80994e-06</wgt>
  <wgt id="30">2.82926e-06</wgt>
  <wgt id="31">2.81981e-06</wgt>
  <wgt id="32">2.8231e-06</wgt>
  <wgt id="33">2.82686e-06</wgt>
  <wgt id="34">2.78354e-06</wgt>
  <wgt id="35">2.90197e-06</wgt>
  <wgt id="36">2.84418e-06</wgt>
  <wgt id="37">2.8158e-06</wgt>
  <wgt id="38">2.81509e-06</wgt>
  <wgt id="39">2.83056e-06</wgt>
  <wgt id="40">2.83405e-06</wgt>
  <wgt id="41">2.81625e-06</wgt>
  <wgt id="42">2.84814e-06</wgt>
  <wgt id="43">2.78778e-06</wgt>
  <wgt id="44">2.83394e-06</wgt>
  <wgt id="45">2.82169e-06</wgt>
  <wgt id="46">2.82417e-06</wgt>
  <wgt id="47">2.82567e-06</wgt>
  <wgt id="48">2.82501e-06</wgt>
  <wgt id="49">2.83025e-06</wgt>
  <wgt id="50">2.81668e-06</wgt>
  <wgt id="51">2.83836e-06</wgt>
  <wgt id="52">2.83933e-06</wgt>
  <wgt id="53">2.82166e-06</wgt>
</rwgt>
</event>
<event>
 12      0 +2.8251000e-06 3.54456700e+02 7.54677100e-03 1.00226800e-01
        2 -1    0    0  503    0 +0.00000000000e+00 +0.00000000000e+00 +1.75032808790e+03  1.75032808790e+03  0.00000000000e+00 0.0000e+00 -1.0000e+00
        2 -1    0    0  504    0 +0.00000000000e+00 +0.00000000000e+00 -2.89105888870e+03  2.89105888870e+03  0.00000000000e+00 0.0000e+00 -1.0000e+00
       24  2    1    2    0    0 -1.42740176670e+02 -5.72013455699e+01 -9.59611143347e+02  9.75224372160e+02  8.10078863363e+01 0.0000e+00 0.0000e+00
       14  1    3    3    0    0 -8.79492241200e+00 -3.55827521023e+01 -1.56660539033e+02  1.60891290621e+02  0.00000000000e+00 0.0000e+00 -1.0000e+00
      -13  1    3    3    0    0 -1.33945254258e+02 -2.16185934676e+01 -8.02950604314e+02  8.14333081539e+02  0.00000000000e+00 0.0000e+00 1.0000e+00
       24  2    1    2    0    0 +1.32680891584e+02 -1.66288238758e+02 +5.44891489502e+02  5.90357638487e+02  7.97459005017e+01 0.0000e+00 0.0000e+00
        4  1    6    6  505    0 +9.44909472894e+01 -9.36169782087e+01 +2.37700662563e+02  2.72386274822e+02  0.00000000000e+00 0.0000e+00 -1.0000e+00
       -3  1    6    6    0  505 +3.81899442945e+01 -7.26712605492e+01 +3.07190826940e+02  3.17971363665e+02  0.00000000000e+00 0.0000e+00 1.0000e+00
       21  1    1    2  503  502 +4.01935705172e+01 +7.71120787675e+01 +2.57368361168e+00  8.69966645918e+01  0.00000000000e+00 0.0000e+00 -1.0000e+00
       21  1    1    2  504  501 +5.42926681322e+01 +3.74717428371e+02 +7.25723706605e+02  8.18557110571e+02  0.00000000000e+00 0.0000e+00 -1.0000e+00
        1  1    1    2  501    0 +1.60230812494e+02 +9.50852451641e+01 +3.09044927352e+02  3.60865465572e+02  0.00000000000e+00 0.0000e+00 -1.0000e+00
        1  1    1    2  502    0 -2.44657766057e+02 -3.23425167975e+02 -1.76335346452e+03  1.80938572522e+03  0.00000000000e+00 0.0000e+00 -1.0000e+00
#  0.1300000e+05  0.1300000e+05  0.8695859e+02  0.1608880e+03  0.1300000e+05  0.1300000e+05
<mgrwt>
<rscale>  2 0.33469776e+03</rscale>
<asrwt>  2 0.86958587e+02 0.16088804e+03</asrwt>
<pdfrwt beam="1">  2        2        2 0.26928124e+00 0.25845952e+00 0.86958587e+02 0.35445670e+03</pdfrwt>
<pdfrwt beam="2">  1        2 0.44477829e+00 0.17250058e+03</pdfrwt>
<totfact> 0.56203371e-04</totfact>
</mgrwt>
<clustering>
<clus scale="   86.959">  1  5  2 -1</clus>
<clus scale="  160.888">  6  7 -1 -1</clus>
<clus scale="  172.501">  2  3  1 -1</clus>
<clus scale="  216.986">  1  4  2 -1</clus>
<clus scale="  530.762">  2  8  1 -1</clus>
<clus scale="  579.021">  1  3  2 -1</clus>
</clustering>
<rwgt>
  <wgt id="1">5.84942e-06</wgt>
  <wgt id="2">3.96146e-06</wgt>
  <wgt id="3">2.86535e-06</wgt>
  <wgt id="4">4.17149e-06</wgt>
  <wgt id="5">2.8251e-06</wgt>
  <wgt id="6">2.04341e-06</wgt>
  <wgt id="7">3.13531e-06</wgt>
  <wgt id="8">2.12336e-06</wgt>
  <wgt id="9">1.53584e-06</wgt>
  <wgt id="10">4.48301e-06</wgt>
  <wgt id="11">2.8251e-06</wgt>
  <wgt id="12">1.9483e-06</wgt>
  <wgt id="13">2.8251e-06</wgt>
  <wgt id="14">2.82859e-06</wgt>
  <wgt id="15">2.82234e-06</wgt>
  <wgt id="16">2.79766e-06</wgt>
  <wgt id="17">2.85615e-06</wgt>
  <wgt id="18">2.80808e-06</wgt>
  <wgt id="19">2.85046e-06</wgt>
  <wgt id="20">2.82044e-06</wgt>
  <wgt id="21">2.82834e-06</wgt>
  <wgt id="22">2.83601e-06</wgt>
  <wgt id="23">2.80987e-06</wgt>
  <wgt id="24">2.88288e-06</wgt>
  <wgt id="25">2.7898e-06</wgt>
  <wgt id="26">2.82613e-06</wgt>
  <wgt id="27">2.82386e-06</wgt>
  <wgt id="28">2.85636e-06</wgt>
  <wgt id="29">2.81361e-06</wgt>
  <wgt id="30">2.82842e-06</wgt>
  <wgt id="31">2.82088e-06</wgt>
  <wgt id="32">2.8159e-06</wgt>
  <wgt id="33">2.83405e-06</wgt>
  <wgt id="34">2.77786e-06</wgt>
  <wgt id="35">2.91298e-06</wgt>
  <wgt id="36">2.84439e-06</wgt>
  <wgt id="37">2.81553e-06</wgt>
  <wgt id="38">2.81584e-06</wgt>
  <wgt id="39">2.8308e-06</wgt>
  <wgt id="40">2.84398e-06</wgt>
  <wgt id="41">2.80607e-06</wgt>
  <wgt id="42">2.84839e-06</wgt>
  <wgt id="43">2.78961e-06</wgt>
  <wgt id="44">2.83298e-06</wgt>
  <wgt id="45">2.82223e-06</wgt>
  <wgt id="46">2.82296e-06</wgt>
  <wgt id="47">2.82632e-06</wgt>
  <wgt id="48">2.84158e-06</wgt>
  <wgt id="49">2.82612e-06</wgt>
  <wgt id="50">2.81855e-06</wgt>
  <wgt id="51">2.83749e-06</wgt>
  <wgt id="52">2.84462e-06</wgt>
  <wgt id="53">2.8208e-06</wgt>
</rwgt>
</event>
<event>
 10      0 +2.8251000e-06 3.88036400e+02 7.54677100e-03 1.02613400e-01
        2 -1    0    0  501    0 +0.00000000000e+00 +0.00000000000e+00 +8.43315331500e+02  8.43315331500e+02  0.00000000000e+00 0.0000e+00 -1.0000e+00
        2 -1    0    0  502    0 +0.00000000000e+00 +0.00000000000e+00 -6.10520783870e+02  6.10520783870e+02  0.00000000000e+00 0.0000e+00 -1.0000e+00
       24  2    1    2    0    0 -6.03259674407e+01 +2.38435168582e+01 -1.65040439931e+02  1.93842414396e+02  7.82866474084e+01 0.0000e+00 0.0000e+00
       14  1    3    3    0    0 -2.74728140334e+00 +2.69387981824e+01 -1.12901550884e+02  1.16103430589e+02  0.00000000000e+00 0.0000e+00 -1.0000e+00
      -13  1    3    3    0    0 -5.75786860374e+01 -3.09528132416e+00 -5.21388890479e+01  7.77389838075e+01  0.00000000000e+00 0.0000e+00 1.0000e+00
       24  2    1    2    0    0 +1.22700450174e+02 -4.68139496912e+02 +1.08543232581e+02  5.02791491803e+02  8.25085562165e+01 0.0000e+00 0.0000e+00
        2  1    6    6  503    0 +6.21026109989e+01 -3.45446832703e+02 +1.03214722430e+02  3.65846316701e+02  0.00000000000e+00 0.0000e+00 -1.0000e+00
       -1  1    6    6    0  503 +6.05978391751e+01 -1.22692664209e+02 +5.32851015052e+00  1.36945175103e+02  0.00000000000e+00 0.0000e+00 1.0000e+00
        1  1    1    2  501    0 -8.70242225530e+01 +1.68337144688e+02 +4.12529142102e+02  4.53972358934e+02  0.00000000000e+00 0.0000e+00 -1.0000e+00
        1  1    1    2  502    0 +2.46497398197e+01 +2.75958835365e+02 -1.23237387122e+02  3.03229850236e+02  0.00000000000e+00 0.0000e+00 -1.0000e+00
#  0.1300000e+05  0.1300000e+05  0.1300000e+05  0.1300000e+05
<mgrwt>
<rscale>  2 0.27881030e+03</rscale>
<asrwt>0</asrwt>
<pdfrwt beam="1">  1        2 0.12974082e+00 0.38803640e+03</pdfrwt>
<pdfrwt beam="2">  1        2 0.93926274e-01 0.10342317e+03</pdfrwt>
<totfact> 0.27491493e+00</totfact>
</mgrwt>
<clustering>
<clus scale="  103.423">  2  3  1 -1</clus>
<clus scale="  191.651">  2  5  1 -1</clus>
<clus scale="  379.612">  2  6  1 -1</clus>
<clus scale="  388.036">  1  3  2 -1</clus>
</clustering>
<rwgt>
  <wgt id="1">4.59358e-06</wgt>
  <wgt id="2">3.07747e-06</wgt>
  <wgt id="3">2.20963e-06</wgt>
  <wgt id="4">4.21689e-06</wgt>
  <wgt id="5">2.8251e-06</wgt>
  <wgt id="6">2.02843e-06</wgt>
  <wgt id="7">3.88382e-06</wgt>
  <wgt id="8">2.60197e-06</wgt>
  <wgt id="9">1.86822e-06</wgt>
  <wgt id="10">2.8251e-06</wgt>
  <wgt id="11">2.8251e-06</wgt>
  <wgt id="12">2.8251e-06</wgt>
  <wgt id="13">2.8251e-06</wgt>
  <wgt id="14">2.82786e-06</wgt>
  <wgt id="15">2.82278e-06</wgt>
  <wgt id="16">2.81906e-06</wgt>
  <wgt id="17">2.83171e-06</wgt>
  <wgt id="18">2.81228e-06</wgt>
  <wgt id="19">2.8441e-06</wgt>
  <wgt id="20">2.81097e-06</wgt>
  <wgt id="21">2.8346e-06</wgt>
  <wgt id="22">2.8317e-06</wgt>
  <wgt id="23">2.81566e-06</wgt>
  <wgt id="24">2.86275e-06</wgt>
  <wgt id="25">2.80181e-06</wgt>
  <wgt id="26">2.82371e-06</wgt>
  <wgt id="27">2.82699e-06</wgt>
  <wgt id="28">2.87247e-06</wgt>
  <wgt id="29">2.80793e-06</wgt>
  <wgt id="30">2.8301e-06</wgt>
  <wgt id="31">2.81866e-06</wgt>
  <wgt id="32">2.8297e-06</wgt>
  <wgt id="33">2.82066e-06</wgt>
  <wgt id="34">2.79014e-06</wgt>
  <wgt id="35">2.88959e-06</wgt>
  <wgt id="36">2.84976e-06</wgt>
  <wgt id="37">2.81218e-06</wgt>
  <wgt id="38">2.81309e-06</wgt>
  <wgt id="39">2.83095e-06</wgt>
  <wgt id="40">2.82527e-06</wgt>
  <wgt id="41">2.82543e-06</wgt>
  <wgt id="42">2.84802e-06</wgt>
  <wgt id="43">2.78543e-06</wgt>
  <wgt id="44">2.83576e-06</wgt>
  <wgt id="45">2.82097e-06</wgt>
  <wgt id="46">2.82612e-06</wgt>
  <wgt id="47">2.82486e-06</wgt>
  <wgt id="48">2.80464e-06</wgt>
  <wgt id="49">2.83648e-06</wgt>
  <wgt id="50">2.81369e-06</wgt>
  <wgt id="51">2.84026e-06</wgt>
  <wgt id="52">2.83249e-06</wgt>
  <wgt id="53">2.82303e-06</wgt>
</rwgt>
</event>
<event>
 10      0 +2.8251000e-06 2.78868600e+02 7.54677100e-03 1.06919000e-01
        2 -1    0    0  501    0 +0.00000000000e+00 +0.00000000000e+00 +2.57517967480e+03  2.57517967480e+03  0.00000000000e+00 0.0000e+00 -1.0000e+00
       -1 -1    0    0    0  501 +0.00000000000e+00 +0.00000000000e+00 -4.59603128530e+02  4.59603128530e+02  0.00000000000e+00 0.0000e+00 1.0000e+00
       24  2    1    2    0    0 -2.61593896486e+02 +1.25065018553e+01 -2.38910072814e+02  3.63729196719e+02  8.14440076783e+01 0.0000e+00 0.0000e+00
        4  1    3    3  503    0 -1.55158308104e+02 +1.03246933050e+01 -8.68625411406e+01  1.78117379610e+02  0.00000000000e+00 0.0000e+00 -1.0000e+00
       -3  1    3    3    0  503 -1.06435588381e+02 +2.18180855028e+00 -1.52047531673e+02  1.85611817109e+02  0.00000000000e+00 0.0000e+00 1.0000e+00
       24  2    1    2    0    0 -2.88338435904e+00 -1.37825122321e+01 +2.24582007741e+03  2.24713415529e+03  7.55368800559e+01 0.0000e+00 0.0000e+00
        2  1    6    6  504    0 -6.64934168781e+00 -3.72045964294e+01 +6.25697260002e+02  6.26837663924e+02  0.00000000000e+00 0.0000e+00 -1.0000e+00
       -1  1    6    6    0  504 +3.76595732877e+00 +2.34220841973e+01 +1.62012281741e+03  1.62029649137e+03  0.00000000000e+00 0.0000e+00 1.0000e+00
        1  1    1    2  502    0 -1.35887417731e+01 -1.02524264815e+02 +6.93455287878e+01  1.24517794478e+02  0.00000000000e+00 0.0000e+00 -1.0000e+00
       -2  1    1    2    0  502 +2.78066022618e+02 +1.03800275192e+02 +3.93210128888e+01  2.99401656841e+02  0.00000000000e+00 0.0000e+00 1.0000e+00
#  0.1300000e+05  0.1300000e+05  0.1300000e+05  0.1300000e+05
<mgrwt>
<rscale>  2 0.20475349e+03</rscale>
<asrwt>0</asrwt>
<pdfrwt beam="1">  1        2 0.39618149e+00 0.81045060e+02</pdfrwt>
<pdfrwt beam="2">  1       -1 0.70708174e-01 0.27886857e+03</pdfrwt>
<totfact> 0.14723124e-01</totfact>
</mgrwt>
<clustering>
<clus scale="   81.045">  1  4  2 -1</clus>
<clus scale="  107.562">  1  5  2 -1</clus>
<clus scale="  267.021">  1  6  2 -1</clus>
<clus scale="  278.869">  1  3  2 -1</clus>
</clustering>
<rwgt>
  <wgt id="1">5.60189e-06</wgt>
  <wgt id="2">3.68017e-06</wgt>
  <wgt id="3">2.60773e-06</wgt>
  <wgt id="4">4.30032e-06</wgt>
  <wgt id="5">2.8251e-06</wgt>
  <wgt id="6">2.00184e-06</wgt>
  <wgt id="7">3.43582e-06</wgt>
  <wgt id="8">2.25716e-06</wgt>
  <wgt id="9">1.59941e-06</wgt>
  <wgt id="10">2.8251e-06</wgt>
  <wgt id="11">2.8251e-06</wgt>
  <wgt id="12">2.8251e-06</wgt>
  <wgt id="13">2.8251e-06</wgt>
  <wgt id="14">2.83021e-06</wgt>
  <wgt id="15">2.82099e-06</wgt>
  <wgt id="16">2.82785e-06</wgt>
  <wgt id="17">2.82191e-06</wgt>
  <wgt id="18">2.80794e-06</wgt>
  <wgt id="19">2.8508e-06</wgt>
  <wgt id="20">2.85026e-06</wgt>
  <wgt id="21">2.80815e-06</wgt>
  <wgt id="22">2.83894e-06</wgt>
  <wgt id="23">2.8058e-06</wgt>
  <wgt id="24">2.89677e-06</wgt>
  <wgt id="25">2.78153e-06</wgt>
  <wgt id="26">2.82637e-06</wgt>
  <wgt id="27">2.82333e-06</wgt>
  <wgt id="28">2.84756e-06</wgt>
  <wgt id="29">2.81693e-06</wgt>
  <wgt id="30">2.818e-06</wgt>
  <wgt id="31">2.83362e-06</wgt>
  <wgt id="32">2.83509e-06</wgt>
  <wgt id="33">2.81549e-06</wgt>
  <wgt id="34">2.80589e-06</wgt>
  <wgt id="35">2.85994e-06</wgt>
  <wgt id="36">2.82796e-06</wgt>
  <wgt id="37">2.82035e-06</wgt>
  <wgt id="38">2.86245e-06</wgt>
  <wgt id="39">2.80853e-06</wgt>
  <wgt id="40">2.82556e-06</wgt>
  <wgt id="41">2.82503e-06</wgt>
  <wgt id="42">2.84106e-06</wgt>
  <wgt id="43">2.7874e-06</wgt>
  <wgt id="44">2.83879e-06</wgt>
  <wgt id="45">2.81994e-06</wgt>
  <wgt id="46">2.82724e-06</wgt>
  <wgt id="47">2.82489e-06</wgt>
  <wgt id="48">2.83353e-06</wgt>
  <wgt id="49">2.82639e-06</wgt>
  <wgt id="50">2.82911e-06</wgt>
  <wgt id="51">2.82881e-06</wgt>
  <wgt id="52">2.82554e-06</wgt>
  <wgt id="53">2.82546e-06</wgt>
</rwgt>
</event>
<event>
 11      0 +2.8251000e-06 1.63273800e+02 7.54677100e-03 1.12732900e-01
        2 -1    0    0  503    0 +0.00000000000e+00 +0.00000000000e+00 +2.73240784440e+03  2.73240784440e+03  0.00000000000e+00 0.0000e+00 -1.0000e+00
       -3 -1    0    0    0  501 +0.00000000000e+00 +0.00000000000e+00 -2.72970501980e+01  2.72970501980e+01  0.00000000000e+00 0.0000e+00 1.0000e+00
       24  2    1    2    0    0 -4.20682612283e+01 -5.53351617263e+01 +2.69913537093e+02  2.89951044373e+02  7.99160303133e+01 0.0000e+00 0.0000e+00
       16  1    3    3    0    0 -3.93837438883e+01 -7.42615923041e+01 +1.89673658000e+02  2.07465563198e+02  0.00000000000e+00 0.0000e+00 -1.0000e+00
      -15  1    3    3    0    0 -2.68451734009e+00 +1.89264305778e+01 +8.02398790932e+01  8.24854811749e+01  1.77700000000e+00 0.0000e+00 1.0000e+00
       24  2    1    2    0    0 -4.15990954748e+01 -4.48837906159e+00 +1.53889322698e+03  1.54167510207e+03  8.25779994570e+01 0.0000e+00 0.0000e+00
        4  1    6    6  504    0 -4.76520944203e+01 -3.25212628109e+01 +1.25650523451e+03  1.25782898639e+03  0.00000000000e+00 0.0000e+00 -1.0000e+00
       -3  1    6    6    0  504 +6.05299894545e+00 +2.80328837493e+01 +2.82387992471e+02  2.83846115682e+02  0.00000000000e+00 0.0000e+00 1.0000e+00
       21  1    1    2  503  501 +4.32474998033e+01 +7.36356152949e+01 +3.74705172720e+02  3.84313044980e+02  0.00000000000e+00 0.0000e+00 1.0000e+00
        1  1    1    2  502    0 -4.81018736729e+01 +1.75767281089e+01 +2.78195169486e+02  2.82869729641e+02  0.00000000000e+00 0.0000e+00 -1.0000e+00
       -4  1    1    2    0  502 +8.85217305728e+01 -3.13888026158e+01 +2.43403687920e+02  2.60895973534e+02  0.00000000000e+00 0.0000e+00 1.0000e+00
#  0.1300000e+05  0.1300000e+05  0.8539643e+02  0.1300000e+05  0.1300000e+05
<mgrwt>
<rscale>  2 0.14021461e+03</rscale>
<asrwt>  1 0.85396429e+02</asrwt>
<pdfrwt beam="1">  1        2 0.42037044e+00 0.16327385e+03</pdfrwt>
<pdfrwt beam="2">  2       -3       -3 0.41995462e-02 0.28771965e-02 0.85396429e+02 0.16327385e+03</pdfrwt>
<totfact> 0.11307412e+00</totfact>
</mgrwt>
<clustering>
<clus scale="   52.700">  3  6 -1 -1</clus>
<clus scale="   85.396">  2  5  1 -1</clus>
<clus scale="   88.802">  2  4  1 -1</clus>
<clus scale="   89.531">  2  7  1 -1</clus>
<clus scale="  163.274">  1  3  2 -1</clus>
</clustering>
<rwgt>
  <wgt id="1">4.47616e-06</wgt>
  <wgt id="2">2.86212e-06</wgt>
  <wgt id="3">1.99239e-06</wgt>
  <wgt id="4">4.41826e-06</wgt>
  <wgt id="5">2.8251e-06</wgt>
  <wgt id="6">1.96662e-06</wgt>
  <wgt id="7">4.28211e-06</wgt>
  <wgt id="8">2.73804e-06</wgt>
  <wgt id="9">1.90602e-06</wgt>
  <wgt id="10">3.60619e-06</wgt>
  <wgt id="11">2.8251e-06</wgt>
  <wgt id="12">2.32623e-06</wgt>
  <wgt id="13">2.8251e-06</wgt>
  <wgt id="14">2.82703e-06</wgt>
  <wgt id="15">2.82367e-06</wgt>
  <wgt id="16">2.8037e-06</wgt>
  <wgt id="17">2.84916e-06</wgt>
  <wgt id="18">2.82808e-06</wgt>
  <wgt id="19">2.82057e-06</wgt>
  <wgt id="20">2.81746e-06</wgt>
  <wgt id="21">2.83038e-06</wgt>
  <wgt id="22">2.8297e-06</wgt>
  <wgt id="23">2.81876e-06</wgt>
  <wgt id="24">2.85122e-06</wgt>
  <wgt id="25">2.80897e-06</wgt>
  <wgt id="26">2.83144e-06</wgt>
  <wgt id="27">2.81635e-06</wgt>
  <wgt id="28">2.82659e-06</wgt>
  <wgt id="29">2.82439e-06</wgt>
  <wgt id="30">2.83432e-06</wgt>
  <wgt id="31">2.80452e-06</wgt>
  <wgt id="32">2.81487e-06</wgt>
  <wgt id="33">2.83496e-06</wgt>
  <wgt id="34">2.7781e-06</wgt>
  <wgt id="35">2.90873e-06</wgt>
  <wgt id="36">2.85123e-06</wgt>
  <wgt id="37">2.80988e-06</wgt>
  <wgt id="38">2.83063e-06</wgt>
  <wgt id="39">2.82296e-06</wgt>
  <wgt id="40">2.84483e-06</wgt>
  <wgt id="41">2.80944e-06</wgt>
  <wgt id="42">2.83761e-06</wgt>
  <wgt id="43">2.80794e-06</wgt>
  <wgt id="44">2.81979e-06</wgt>
  <wgt id="45">2.82723e-06</wgt>
  <wgt id="46">2.84702e-06</wgt>
  <wgt id="47">2.81092e-06</wgt>
  <wgt id="48">2.82905e-06</wgt>
  <wgt id="49">2.82829e-06</wgt>
  <wgt id="50">2.8059e-06</wgt>
  <wgt id="51">2.83276e-06</wgt>
  <wgt id="52">2.81741e-06</wgt>
  <wgt id="53">2.82563e-06</wgt>
</rwgt>
</event>
<event>
 12      0 +2.8251000e-06 1.82021900e+02 7.54677100e-03 1.08889300e-01
        2 -1    0    0  502    0 +0.00000000000e+00 +0.00000000000e+00 +1.35386401460e+03  1.35386401460e+03  0.00000000000e+00 0.0000e+00 -1.0000e+00
        2 -1    0    0  503    0 +0.00000000000e+00 +0.00000000000e+00 -2.08817641370e+03  2.08817641370e+03  0.00000000000e+00 0.0000e+00 -1.0000e+00
       24  2    1    2    0    0 +4.20070027859e+01 -7.68349323434e+01 +7.54567886280e+02  7.64192512134e+02  8.33624944694e+01 0.0000e+00 0.0000e+00
        2  1    3    3  505    0 +1.07896415717e+01 -2.81411493903e+01 +5.69486286898e+02  5.70283238066e+02  0.00000000000e+00 0.0000e+00 -1.0000e+00
       -1  1    3    3    0  505 +3.12173612143e+01 -4.86937829531e+01 +1.85081599383e+02  1.93909274068e+02  0.00000000000e+00 0.0000e+00 1.0000e+00
       24  2    1    2    0    0 +7.71006429117e+01 +1.07665759408e+01 -3.33603570933e+02  3.51893918232e+02  8.04832830739e+01 0.0000e+00 0.0000e+00
       12  1    6    6    0    0 +7.06823903703e+01 -2.11084186173e+01 -2.76615632559e+02  2.86282681665e+02  0.00000000000e+00 0.0000e+00 -1.0000e+00
      -11  1    6    6    0    0 +6.41825254148e+00 +3.18749945581e+01 -5.69879383735e+01  6.56112365668e+01  0.00000000000e+00 0.0000e+00 1.0000e+00
       21  1    1    2  503  504 -8.07370297591e+00 +4.30846785590e+01 -5.21242958930e+02  5.23082877220e+02  0.00000000000e+00 0.0000e+00 -1.0000e+00
       21  1    1    2  504  501 -1.78604611504e+02 +1.47261366059e+01 +1.26163051684e+02  2.19165649590e+02  0.00000000000e+00 0.0000e+00 1.0000e+00
        1  1    1    2  501    0 -1.43066428819e+02 -5.71798608874e+01 +3.86453710056e+02  4.16033663977e+02  0.00000000000e+00 0.0000e+00 -1.0000e+00
        1  1    1    2  502    0 +2.10637097601e+02 +6.54374021251e+01 -1.14665051726e+03  1.16767180715e+03  0.00000000000e+00 0.0000e+00 -1.0000e+00
#  0.1300000e+05  0.1300000e+05  0.4383462e+02  0.1300000e+05  0.1300000e+05  0.1300000e+05
<mgrwt>
<rscale>  3 0.17927406e+03</rscale>
<asrwt>  1 0.43834623e+02</asrwt>
<pdfrwt beam="1">  1        2 0.20828677e+00 0.11898127e+03</pdfrwt>
<pdfrwt beam="2">  2        2        2 0.32125791e+00 0.24070686e+00 0.43834623e+02 0.18202188e+03</pdfrwt>
<totfact> 0.36712590e-03</totfact>
</mgrwt>
<clustering>
<clus scale="   43.835">  2  5  1 -1</clus>
<clus scale="  111.958">  2  4  1 -1</clus>
<clus scale="  118.981">  1  3  2 -1</clus>
<clus scale="  157.235">  1  7  2 -1</clus>
<clus scale="  278.464">  2  8  1 -1</clus>
<clus scale="  278.464">  1  3  2 -1</clus>
</clustering>
<rwgt>
  <wgt id="1">6.74796e-06</wgt>
  <wgt id="2">3.54486e-06</wgt>
  <wgt id="3">2.09536e-06</wgt>
  <wgt id="4">5.37783e-06</wgt>
  <wgt id="5">2.8251e-06</wgt>
  <wgt id="6">1.66991e-06</wgt>
  <wgt id="7">4.42583e-06</wgt>
  <wgt id="8">2.32499e-06</wgt>
  <wgt id="9">1.3743e-06</wgt>
  <wgt id="10">3.73423e-06</wgt>
  <wgt id="11">2.8251e-06</wgt>
  <wgt id="12">2.27775e-06</wgt>
  <wgt id="13">2.8251e-06</wgt>
  <wgt id="14">2.82824e-06</wgt>
  <wgt id="15">2.82251e-06</wgt>
  <wgt id="16">2.80279e-06</wgt>
  <wgt id="17">2.84999e-06</wgt>
  <wgt id="18">2.80987e-06</wgt>
  <wgt id="19">2.84774e-06</wgt>
  <wgt id="20">2.81992e-06</wgt>
  <wgt id="21">2.82856e-06</wgt>
  <wgt id="22">2.8346e-06</wgt>
  <wgt id="23">2.8115e-06</wgt>
  <wgt id="24">2.87647e-06</wgt>
  <wgt id="25">2.79355e-06</wgt>
  <wgt id="26">2.82625e-06</wgt>
  <wgt id="27">2.82348e-06</wgt>
  <wgt id="28">2.8744e-06</wgt>
  <wgt id="29">2.80719e-06</wgt>
  <wgt id="30">2.83101e-06</wgt>
  <wgt id="31">2.8176e-06</wgt>
  <wgt id="32">2.82321e-06</wgt>
  <wgt id="33">2.82691e-06</wgt>
  <wgt id="34">2.77871e-06</wgt>
  <wgt id="35">2.91128e-06</wgt>
  <wgt id="36">2.84177e-06</wgt>
  <wgt id="37">2.81652e-06</wgt>
  <wgt id="38">2.81584e-06</wgt>
  <wgt id="39">2.83054e-06</wgt>
  <wgt id="40">2.83355e-06</wgt>
  <wgt id="41">2.81666e-06</wgt>
  <wgt id="42">2.84985e-06</wgt>
  <wgt id="43">2.78663e-06</wgt>
  <wgt id="44">2.83069e-06</wgt>
  <wgt id="45">2.82319e-06</wgt>
  <wgt id="46">2.82205e-06</wgt>
  <wgt id="47">2.82679e-06</wgt>
  <wgt id="48">2.83525e-06</wgt>
  <wgt id="49">2.82699e-06</wgt>
  <wgt id="50">2.81898e-06</wgt>
  <wgt id="51">2.83609e-06</wgt>
  <wgt id="52">2.84488e-06</wgt>
  <wgt id="53">2.82034e-06</wgt>
</rwgt>
</event>
<event>
 11      0 +2.8251000e-06 8.02581800e+02 7.54677100e-03 9.49267000e-02
        2 -1    0    0  501    0 +0.00000000000e+00 +0.00000000000e+00 +1.24734251330e+03  1.24734251330e+03  0.00000000000e+00 0.0000e+00 -1.0000e+00
        2 -1    0    0  503    0 +0.00000000000e+00 +0.00000000000e+00 -1.71132772150e+03  1.71132772150e+03  0.00000000000e+00 0.0000e+00 -1.0000e+00
       24  2    1    2    0    0 -4.09228025750e+01 +5.01591684382e+01 +9.29861382724e+02  9.35755795967e+02  8.24990948688e+01 0.0000e+00 0.0000e+00
       14  1    3    3    0    0 -2.73460750076e+01 +1.93670146938e+01 +8.23851134962e+02  8.24532341182e+02  0.00000000000e+00 0.0000e+00 -1.0000e+00
      -13  1    3    3    0    0 -1.35767275674e+01 +3.07921537444e+01 +1.06010247762e+02  1.11223454785e+02  0.00000000000e+00 0.0000e+00 1.0000e+00
       24  2    1    2    0    0 +1.11653260986e+02 +3.00485136789e+01 -7.98477192756e+02  8.10816040844e+02  8.05447755883e+01 0.0000e+00 0.0000e+00
        2  1    6    6  504    0 +1.13897835230e+02 +3.30961497772e+01 -7.98261300895e+02  8.07024892123e+02  0.00000000000e+00 0.0000e+00 -1.0000e+00
       -1  1    6    6    0  504 -2.24457424420e+00 -3.04763609834e+00 -2.15891861435e-01  3.79114872057e+00  0.00000000000e+00 0.0000e+00 1.0000e+00
       21  1    1    2  503  502 -2.99162016660e+02 -1.57706159491e+02 -6.63049823780e+02  7.44314593280e+02  0.00000000000e+00 0.0000e+00 -1.0000e+00
        1  1    1    2  501    0 +1.83655054823e+02 +3.07834048989e+01 +2.28302945646e+02  2.94616754734e+02  0.00000000000e+00 0.0000e+00 -1.0000e+00
        1  1    1    2  502    0 +4.47765034264e+01 +4.67150724753e+01 -1.60622520034e+02  1.73167049976e+02  0.00000000000e+00 0.0000e+00 -1.0000e+00
#  0.1300000e+05  0.1300000e+05  0.1247714e+03  0.1300000e+05  0.1300000e+05
<mgrwt>
<rscale>  3 0.51938410e+03</rscale>
<asrwt>0</asrwt>
<pdfrwt beam="1">  1        2 0.19189885e+00 0.80258183e+03</pdfrwt>
<pdfrwt beam="2">  1        2 0.26328119e+00 0.14076239e+03</pdfrwt>
<totfact> 0.27431773e-02</totfact>
</mgrwt>
<clustering>
<clus scale="   64.823">  3  7 -1 -1</clus>
<clus scale="  140.762">  2  4  1 -1</clus>
<clus scale="  191.051">  2  6  1 -1</clus>
<clus scale="  124.771">  2  5  1 -1</clus>
<clus scale="  802.582">  1  3  2 -1</clus>
</clustering>
<rwgt>
  <wgt id="1">6.07323e-06</wgt>
  <wgt id="2">3.50691e-06</wgt>
  <wgt id="3">2.21086e-06</wgt>
  <wgt id="4">4.89248e-06</wgt>
  <wgt id="5">2.8251e-06</wgt>
  <wgt id="6">1.78103e-06</wgt>
  <wgt id="7">4.05962e-06</wgt>
  <wgt id="8">2.34418e-06</wgt>
  <wgt id="9">1.47784e-06</wgt>
  <wgt id="10">2.8251e-06</wgt>
  <wgt id="11">2.8251e-06</wgt>
  <wgt id="12">2.8251e-06</wgt>
  <wgt id="13">2.8251e-06</wgt>
  <wgt id="14">2.82817e-06</wgt>
  <wgt id="15">2.82262e-06</wgt>
  <wgt id="16">2.80492e-06</wgt>
  <wgt id="17">2.84768e-06</wgt>
  <wgt id="18">2.81038e-06</wgt>
  <wgt id="19">2.84698e-06</wgt>
  <wgt id="20">2.81899e-06</wgt>
  <wgt id="21">2.82925e-06</wgt>
  <wgt id="22">2.83417e-06</wgt>
  <wgt id="23">2.81225e-06</wgt>
  <wgt id="24">2.87417e-06</wgt>
  <wgt id="25">2.79502e-06</wgt>
  <wgt id="26">2.82611e-06</wgt>
  <wgt id="27">2.8238e-06</wgt>
  <wgt id="28">2.87762e-06</wgt>
  <wgt id="29">2.80613e-06</wgt>
  <wgt id="30">2.8313e-06</wgt>
  <wgt id="31">2.81733e-06</wgt>
  <wgt id="32">2.82506e-06</wgt>
  <wgt id="33">2.82509e-06</wgt>
  <wgt id="34">2.78039e-06</wgt>
  <wgt id="35">2.90803e-06</wgt>
  <wgt id="36">2.84448e-06</wgt>
  <wgt id="37">2.81448e-06</wgt>
  <wgt id="38">2.81465e-06</wgt>
  <wgt id="39">2.83091e-06</wgt>
  <wgt id="40">2.83075e-06</wgt>
  <wgt id="41">2.81961e-06</wgt>
  <wgt id="42">2.85023e-06</wgt>
  <wgt id="43">2.78593e-06</wgt>
  <wgt id="44">2.83031e-06</wgt>
  <wgt id="45">2.82342e-06</wgt>
  <wgt id="46">2.82229e-06</wgt>
  <wgt id="47">2.82679e-06</wgt>
  <wgt id="48">2.83148e-06</wgt>
  <wgt id="49">2.82811e-06</wgt>
  <wgt id="50">2.81815e-06</wgt>
  <wgt id="51">2.83675e-06</wgt>
  <wgt id="52">2.84414e-06</wgt>
  <wgt id="53">2.82046e-06</wgt>
</rwgt>
</event>
<event>
 10      0 +2.8251000e-06 2.53454400e+02 7.54677100e-03 1.05499300e-01
        2 -1    0    0  501    0 +0.00000000000e+00 +0.00000000000e+00 +4.64027793150e+02  4.64027793150e+02  0.00000000000e+00 0.0000e+00 -1.0000e+00
        2 -1    0    0  502    0 +0.00000000000e+00 +0.00000000000e+00 -2.62823288370e+03  2.62823288370e+03  0.00000000000e+00 0.0000e+00 -1.0000e+00
       24  2    1    2    0    0 +7.22660510575e+01 +7.36910345836e+01 +3.68946669772e+02  3.91517427556e+02  8.06938673676e+01 0.0000e+00 0.0000e+00
       16  1    3    3    0    0 +6.80604929012e+01 +1.28398120561e+01 +2.16987364540e+02  2.27773149949e+02  0.00000000000e+00 0.0000e+00 -1.0000e+00
      -15  1    3    3    0    0 +4.20555815628e+00 +6.08512225275e+01 +1.51959305233e+02  1.63744277608e+02  1.77700000000e+00 0.0000e+00 1.0000e+00
       24  2    1    2    0    0 -1.23411287270e+02 -1.59596811009e+02 -1.24627817798e+03  1.26514017522e+03  8.16631993888e+01 0.0000e+00 0.0000e+00
        2  1    6    6  503    0 -1.10502886006e+02 -1.08314345852e+02 -1.06879224744e+03  1.07993506912e+03  0.00000000000e+00 0.0000e+00 -1.0000e+00
       -1  1    6    6    0  503 -1.29084012641e+01 -5.12824651570e+01 -1.77485930543e+02  1.85205106099e+02  0.00000000000e+00 0.0000e+00 1.0000e+00
        1  1    1    2  501    0 -7.81774369134e+01 -2.07289358551e+02 -9.29773104178e+02  9.55802602562e+02  0.00000000000e+00 0.0000e+00 -1.0000e+00
        1  1    1    2  502    0 +1.29322673126e+02 +2.93195134977e+02 -3.57100478164e+02  4.79800471512e+02  0.00000000000e+00 0.0000e+00 -1.0000e+00
#  0.1300000e+05  0.1300000e+05  0.1300000e+05  0.1300000e+05
<mgrwt>
<rscale>  2 0.22606100e+03</rscale>
<asrwt>0</asrwt>
<pdfrwt beam="1">  1        2 0.71388891e-01 0.13085748e+03</pdfrwt>
<pdfrwt beam="2">  1        2 0.40434352e+00 0.20677361e+03</pdfrwt>
<totfact> 0.41604599e-01</totfact>
</mgrwt>
<clustering>
<clus scale="  130.857">  1  3  2 -1</clus>
<clus scale="  206.774">  2  4  1 -1</clus>
<clus scale="  310.674">  2  5  1 -1</clus>
<clus scale="  310.674">  1  3  2 -1</clus>
</clustering>
<rwgt>
  <wgt id="1">5.26167e-06</wgt>
  <wgt id="2">3.47935e-06</wgt>
  <wgt id="3">2.47616e-06</wgt>
  <wgt id="4">4.27227e-06</wgt>
  <wgt id="5">2.8251e-06</wgt>
  <wgt id="6">2.01055e-06</wgt>
  <wgt id="7">3.56162e-06</wgt>
  <wgt id="8">2.35517e-06</wgt>
  <wgt id="9">1.67611e-06</wgt>
  <wgt id="10">2.8251e-06</wgt>
  <wgt id="11">2.8251e-06</wgt>
  <wgt id="12">2.8251e-06</wgt>
  <wgt id="13">2.8251e-06</wgt>
  <wgt id="14">2.82839e-06</wgt>
  <wgt id="15">2.82242e-06</wgt>
  <wgt id="16">2.81125e-06</wgt>
  <wgt id="17">2.84057e-06</wgt>
  <wgt id="18">2.81033e-06</wgt>
  <wgt id="19">2.84711e-06</wgt>
  <wgt id="20">2.8157e-06</wgt>
  <wgt id="21">2.83149e-06</wgt>
  <wgt id="22">2.83367e-06</wgt>
  <wgt id="23">2.81306e-06</wgt>
  <wgt id="24">2.87167e-06</wgt>
  <wgt id="25">2.79648e-06</wgt>
  <wgt id="26">2.82455e-06</wgt>
  <wgt id="27">2.82605e-06</wgt>
  <wgt id="28">2.85543e-06</wgt>
  <wgt id="29">2.81393e-06</wgt>
  <wgt id="30">2.82846e-06</wgt>
  <wgt id="31">2.82082e-06</wgt>
  <wgt id="32">2.82178e-06</wgt>
  <wgt id="33">2.82826e-06</wgt>
  <wgt id="34">2.78562e-06</wgt>
  <wgt id="35">2.89799e-06</wgt>
  <wgt id="36">2.83987e-06</wgt>
  <wgt id="37">2.81892e-06</wgt>
  <wgt id="38">2.81676e-06</wgt>
  <wgt id="39">2.82979e-06</wgt>
  <wgt id="40">2.83712e-06</wgt>
  <wgt id="41">2.81329e-06</wgt>
  <wgt id="42">2.84635e-06</wgt>
  <wgt id="43">2.78898e-06</wgt>
  <wgt id="44">2.83625e-06</wgt>
  <wgt id="45">2.82076e-06</wgt>
  <wgt id="46">2.82497e-06</wgt>
  <wgt id="47">2.82552e-06</wgt>
  <wgt id="48">2.81744e-06</wgt>
  <wgt id="49">2.83365e-06</wgt>
  <wgt id="50">2.81597e-06</wgt>
  <wgt id="51">2.83863e-06</wgt>
  <wgt id="52">2.83444e-06</wgt>
  <wgt id="53">2.82302e-06</wgt>
</rwgt>
</event>
<event>
 10      0 +2.8251000e-06 1.60081000e+02 7.54677100e-03 1.10691900e-01
        2 -1    0    0  502    0 +0.00000000000e+00 +0.00000000000e+00 +2.80388628020e+02  2.80388628020e+02  0.00000000000e+00 0.0000e+00 -1.0000e+00
        2 -1    0    0  501    0 +0.00000000000e+00 +0.00000000000e+00 -2.47011246450e+03  2.47011246450e+03  0.00000000000e+00 0.0000e+00 -1.0000e+00
       24  2    1    2    0    0 +7.49425126132e+01 +4.63267420860e+01 +1.11637023217e+02  1.63772557253e+02  8.12162442330e+01 0.0000e+00 0.0000e+00
        4  1    3    3  503    0 +5.57560439663e+01 -2.35202465299e+00 +9.25567194449e+01  1.08078743392e+02  0.00000000000e+00 0.0000e+00 -1.0000e+00
       -3  1    3    3    0  503 +1.91864686470e+01 +4.86787667390e+01 +1.90803037721e+01  5.56938138612e+01  0.00000000000e+00 0.0000e+00 1.0000e+00
       24  2    1    2    0    0 -4.91117556857e+01 -6.74898075489e+01 -1.61009334617e+03  1.61420022843e+03  7.92146162911e+01 0.0000e+00 0.0000e+00
        2  1    6    6  504    0 -5.05444401093e+01 -6.20034040095e+01 -1.60354059679e+03  1.60553467982e+03  0.00000000000e+00 0.0000e+00 -1.0000e+00
       -1  1    6    6    0  504 +1.43268442354e+00 -5.48640353943e+00 -6.55274937479e+00  8.66554861644e+00  0.00000000000e+00 0.0000e+00 1.0000e+00
        1  1    1    2  501    0 +1.55914176580e+02 -1.06000945993e+01 +8.27461564739e+01  1.76829066828e+02  0.00000000000e+00 0.0000e+00 -1.0000e+00
        1  1    1    2  502    0 -1.81744933507e+02 +3.17631600622e+01 -7.74013670004e+02  7.95699240006e+02  0.00000000000e+00 0.0000e+00 -1.0000e+00
#  0.1300000e+05  0.1300000e+05  0.1300000e+05  0.1300000e+05
<mgrwt>
<rscale>  2 0.15942085e+03</rscale>
<asrwt>0</asrwt>
<pdfrwt beam="1">  1        2 0.43136712e-01 0.11754399e+03</pdfrwt>
<pdfrwt beam="2">  1        2 0.38001730e+00 0.11561693e+03</pdfrwt>
<totfact> 0.10312098e+00</totfact>
</mgrwt>
<clustering>
<clus scale="  115.617">  2  4  1 -1</clus>
<clus scale="  117.544">  1  3  2 -1</clus>
<clus scale="  218.011">  1  5  2 -1</clus>
<clus scale="  218.011">  1  3  2 -1</clus>
</clustering>
<rwgt>
  <wgt id="1">5.24366e-06</wgt>
  <wgt id="2">3.38519e-06</wgt>
  <wgt id="3">2.37114e-06</wgt>
  <wgt id="4">4.37608e-06</wgt>
  <wgt id="5">2.8251e-06</wgt>
  <wgt id="6">1.97883e-06</wgt>
  <wgt id="7">3.73051e-06</wgt>
  <wgt id="8">2.40833e-06</wgt>
  <wgt id="9">1.6869e-06</wgt>
  <wgt id="10">2.8251e-06</wgt>
  <wgt id="11">2.8251e-06</wgt>
  <wgt id="12">2.8251e-06</wgt>
  <wgt id="13">2.8251e-06</wgt>
  <wgt id="14">2.82865e-06</wgt>
  <wgt id="15">2.82223e-06</wgt>
  <wgt id="16">2.81549e-06</wgt>
  <wgt id="17">2.83574e-06</wgt>
  <wgt id="18">2.81138e-06</wgt>
  <wgt id="19">2.84559e-06</wgt>
  <wgt id="20">2.81813e-06</wgt>
  <wgt id="21">2.82977e-06</wgt>
  <wgt id="22">2.83293e-06</wgt>
  <wgt id="23">2.81397e-06</wgt>
  <wgt id="24">2.86799e-06</wgt>
  <wgt id="25">2.79873e-06</wgt>
  <wgt id="26">2.82477e-06</wgt>
  <wgt id="27">2.82556e-06</wgt>
  <wgt id="28">2.85196e-06</wgt>
  <wgt id="29">2.81514e-06</wgt>
  <wgt id="30">2.82987e-06</wgt>
  <wgt id="31">2.81878e-06</wgt>
  <wgt id="32">2.82335e-06</wgt>
  <wgt id="33">2.82677e-06</wgt>
  <wgt id="34">2.78747e-06</wgt>
  <wgt id="35">2.89421e-06</wgt>
  <wgt id="36">2.83048e-06</wgt>
  <wgt id="37">2.82395e-06</wgt>
  <wgt id="38">2.81913e-06</wgt>
  <wgt id="39">2.82861e-06</wgt>
  <wgt id="40">2.83543e-06</wgt>
  <wgt id="41">2.81484e-06</wgt>
  <wgt id="42">2.84484e-06</wgt>
  <wgt id="43">2.78977e-06</wgt>
  <wgt id="44">2.835e-06</wgt>
  <wgt id="45">2.82121e-06</wgt>
  <wgt id="46">2.82321e-06</wgt>
  <wgt id="47">2.82656e-06</wgt>
  <wgt id="48">2.81296e-06</wgt>
  <wgt id="49">2.83494e-06</wgt>
  <wgt id="50">2.81652e-06</wgt>
  <wgt id="51">2.83537e-06</wgt>
  <wgt id="52">2.83201e-06</wgt>
  <wgt id="53">2.8235e-06</wgt>
</rwgt>
</event>
<event>
 12      0 +2.8251000e-06 2.85921600e+02 7.54677100e-03 1.04581600e-01
        2 -1    0    0  504    0 +0.00000000000e+00 +0.00000000000e+00 +1.17025531300e+03  1.17025531300e+03  0.00000000000e+00 0.0000e+00 -1.0000e+00
       21 -1    0    0  501  503 +0.00000000000e+00 +0.00000000000e+00 -5.06354332380e+02  5.06354332380e+02  0.00000000000e+00 0.0000e+00 1.0000e+00
       24  2    1    2    0    0 -2.10988889285e+02 +2.49122247828e+02 +5.58265767403e+02  6.51693999976e+02  8.04126655838e+01 0.0000e+00 0.0000e+00
       14  1    3    3    0    0 -9.56262302147e+01 +5.80578189080e+01 +2.12541144447e+02  2.40184979389e+02  0.00000000000e+00 0.0000e+00 -1.0000e+00
      -13  1    3    3    0    0 -1.15362659071e+02 +1.91064428920e+02 +3.45724622956e+02  4.11509020587e+02  0.00000000000e+00 0.0000e+00 1.0000e+00
       24  2    1    2    0    0 +8.30541492321e+01 -9.17917102071e+01 -1.68778080926e+01  1.48954988912e+02  8.11111493465e+01 0.0000e+00 0.0000e+00
        4  1    6    6  505    0 +4.52267391822e+01 -5.78666087431e+01 -4.95043816664e+01  8.85702328588e+01  0.00000000000e+00 0.0000e+00 -1.0000e+00
       -3  1    6    6    0  505 +3.78274100500e+01 -3.39251014639e+01 +3.26265735738e+01  6.03847560531e+01  0.00000000000e+00 0.0000e+00 1.0000e+00
       21  1    1    2  504  502 +8.37328931911e+01 -1.21364459074e+01 +3.12644468205e+01  9.01995363425e+01  0.00000000000e+00 0.0000e+00 -1.0000e+00
        1  1    1    2  501    0 -1.38766283344e+02 +1.26259074769e+02 +1.69455265918e+02  2.52809261108e+02  0.00000000000e+00 0.0000e+00 -1.0000e+00
        3  1    1    2  502    0 +2.08492949209e+02 -2.08390536752e+02 +1.23855723021e+02  3.19743906592e+02  0.00000000000e+00 0.0000e+00 -1.0000e+00
       -4  1    1    2    0  503 -2.55248190032e+01 -6.30626297310e+01 -2.02062414451e+02  2.13207952449e+02  0.00000000000e+00 0.0000e+00 1.0000e+00
#  0.1300000e+05  0.1300000e+05  0.5347569e+02  0.1300000e+05  0.1300000e+05  0.6803243e+02
<mgrwt>
<rscale>  2 0.24133643e+03</rscale>
<asrwt>  2 0.53475688e+02 0.68032431e+02</asrwt>
<pdfrwt beam="1">  2       21        4 0.77900667e-01 0.45585828e-01 0.68032431e+02 0.28592159e+03</pdfrwt>
<pdfrwt beam="2">  1        2 0.18003928e+00 0.28592159e+03</pdfrwt>
<totfact> 0.86653699e-02</totfact>
</mgrwt>
<clustering>
<clus scale="   53.476">  5  7 -1 -1</clus>
<clus scale="   68.032">  2  8  1 -1</clus>
<clus scale="  154.424">  2  4  1 -1</clus>
<clus scale="  304.237">  1  3  2 -1</clus>
<clus scale="  249.398">  1  6  2 -1</clus>
<clus scale="  268.709">  2  3  1 -1</clus>
</clustering>
<rwgt>
  <wgt id="1">4.31151e-06</wgt>
  <wgt id="2">2.86303e-06</wgt>
  <wgt id="3">2.0433e-06</wgt>
  <wgt id="4">4.25439e-06</wgt>
  <wgt id="5">2.8251e-06</wgt>
  <wgt id="6">2.01623e-06</wgt>
  <wgt id="7">4.08975e-06</wgt>
  <wgt id="8">2.71577e-06</wgt>
  <wgt id="9">1.9382e-06</wgt>
  <wgt id="10">4.76366e-06</wgt>
  <wgt id="11">2.8251e-06</wgt>
  <wgt id="12">1.87556e-06</wgt>
  <wgt id="13">2.8251e-06</wgt>
  <wgt id="14">2.83247e-06</wgt>
  <wgt id="15">2.81879e-06</wgt>
  <wgt id="16">2.81677e-06</wgt>
  <wgt id="17">2.83386e-06</wgt>
  <wgt id="18">2.81828e-06</wgt>
  <wgt id="19">2.83498e-06</wgt>
  <wgt id="20">2.82135e-06</wgt>
  <wgt id="21">2.82723e-06</wgt>
  <wgt id="22">2.8272e-06</wgt>
  <wgt id="23">2.82149e-06</wgt>
  <wgt id="24">2.83733e-06</wgt>
  <wgt id="25">2.81719e-06</wgt>
  <wgt id="26">2.82618e-06</wgt>
  <wgt id="27">2.82326e-06</wgt>
  <wgt id="28">2.85147e-06</wgt>
  <wgt id="29">2.81542e-06</wgt>
  <wgt id="30">2.80949e-06</wgt>
  <wgt id="31">2.84382e-06</wgt>
  <wgt id="32">2.82728e-06</wgt>
  <wgt id="33">2.82246e-06</wgt>
  <wgt id="34">2.82836e-06</wgt>
  <wgt id="35">2.82073e-06</wgt>
  <wgt id="36">2.82037e-06</wgt>
  <wgt id="37">2.82865e-06</wgt>
  <wgt id="38">2.80734e-06</wgt>
  <wgt id="39">2.83358e-06</wgt>
  <wgt id="40">2.81908e-06</wgt>
  <wgt id="41">2.83007e-06</wgt>
  <wgt id="42">2.82653e-06</wgt>
  <wgt id="43">2.82348e-06</wgt>
  <wgt id="44">2.8245e-06</wgt>
  <wgt id="45">2.82531e-06</wgt>
  <wgt id="46">2.82673e-06</wgt>
  <wgt id="47">2.82379e-06</wgt>
  <wgt id="48">2.82958e-06</wgt>
  <wgt id="49">2.82457e-06</wgt>
  <wgt id="50">2.84841e-06</wgt>
  <wgt id="51">2.81267e-06</wgt>
  <wgt id="52">2.8358e-06</wgt>
  <wgt id="53">2.82207e-06</wgt>
</rwgt>
</event>
<event>
 11      0 +2.8251000e-06 1.81657600e+02 7.54677100e-03 1.10457300e-01
       -1 -1    0    0    0  501 +0.00000000000e+00 +0.00000000000e+00 +1.61366166920e+02  1.61366166920e+02  0.00000000000e+00 0.0000e+00 1.0000e+00
        2 -1    0    0  503    0 +0.00000000000e+00 +0.00000000000e+00 -2.88308418010e+03  2.88308418010e+03  0.00000000000e+00 0.0000e+00 -1.0000e+00
       24  2    1    2    0    0 +6.88021192487e+01 +9.82151344234e+01 -3.75799599210e+02  4.00570367879e+02  6.96515370476e+01 0.0000e+00 0.0000e+00
        2  1    3    3  504    0 +3.67381732824e+01 +8.05991784918e+01 -3.31434198512e+02  3.43066391378e+02  0.00000000000e+00 0.0000e+00 -1.0000e+00
       -1  1    3    3    0  504 +3.20639459663e+01 +1.76159559316e+01 -4.43654006981e+01  5.75039765009e+01  0.00000000000e+00 0.0000e+00 1.0000e+00
       24  2    1    2    0    0 -4.46289348419e+01 +9.20478321693e+00 -1.02142907823e+03  1.02568458557e+03  8.14557385627e+01 0.0000e+00 0.0000e+00
        4  1    6    6  505    0 -5.53290703048e+01 +3.48624750407e+01 -6.90474709401e+02  6.93564721211e+02  0.00000000000e+00 0.0000e+00 -1.0000e+00
       -3  1    6    6    0  505 +1.07001354629e+01 -2.56576918237e+01 -3.30954368834e+02  3.32119864355e+02  0.00000000000e+00 0.0000e+00 1.0000e+00
       21  1    1    2  503  501 +1.23547545042e+02 +1.05985745153e+01 -1.28941499150e+02  1.78891687540e+02  0.00000000000e+00 0.0000e+00 -1.0000e+00
        1  1    1    2  502    0 -1.31624976349e+02 +1.59271959142e+02 -1.13676994754e+03  1.15539543231e+03  0.00000000000e+00 0.0000e+00 -1.0000e+00
       -2  1    1    2    0  502 -1.60957530998e+01 -2.77290451297e+02 -5.87778890406e+01  2.83908273723e+02  0.00000000000e+00 0.0000e+00 1.0000e+00
#  0.1300000e+05  0.1300000e+05  0.1204503e+03  0.1300000e+05  0.1300000e+05
<mgrwt>
<rscale>  2 0.16184238e+03</rscale>
<asrwt>  1 0.12045033e+03</asrwt>
<pdfrwt beam="1">  1        2 0.44355141e+00 0.92035719e+02</pdfrwt>
<pdfrwt beam="2">  2       -1       -1 0.24825564e-01 0.19098117e-01 0.12045033e+03 0.18165764e+03</pdfrwt>
<totfact> 0.70871652e-02</totfact>
</mgrwt>
<clustering>
<clus scale="   92.036">  2  4  1 -1</clus>
<clus scale="  120.450">  1  5  2 -1</clus>
<clus scale="  146.084">  1  3  2 -1</clus>
<clus scale="  225.894">  2  6  1 -1</clus>
<clus scale="  225.894">  2  3  1 -1</clus>
</clustering>
<rwgt>
  <wgt id="1">5.30107e-06</wgt>
  <wgt id="2">3.42605e-06</wgt>
  <wgt id="3">2.40147e-06</wgt>
  <wgt id="4">4.37123e-06</wgt>
  <wgt id="5">2.8251e-06</wgt>
  <wgt id="6">1.98024e-06</wgt>
  <wgt id="7">3.72021e-06</wgt>
  <wgt id="8">2.40435e-06</wgt>
  <wgt id="9">1.68532e-06</wgt>
  <wgt id="10">3.55343e-06</wgt>
  <wgt id="11">2.8251e-06</wgt>
  <wgt id="12">2.34789e-06</wgt>
  <wgt id="13">2.8251e-06</wgt>
  <wgt id="14">2.83078e-06</wgt>
  <wgt id="15">2.8205e-06</wgt>
  <wgt id="16">2.8241e-06</wgt>
  <wgt id="17">2.82632e-06</wgt>
  <wgt id="18">2.8098e-06</wgt>
  <wgt id="19">2.84785e-06</wgt>
  <wgt id="20">2.83366e-06</wgt>
  <wgt id="21">2.8194e-06</wgt>
  <wgt id="22">2.83483e-06</wgt>
  <wgt id="23">2.81147e-06</wgt>
  <wgt id="24">2.87637e-06</wgt>
  <wgt id="25">2.79391e-06</wgt>
  <wgt id="26">2.82673e-06</wgt>
  <wgt id="27">2.82306e-06</wgt>
  <wgt id="28">2.83136e-06</wgt>
  <wgt id="29">2.82266e-06</wgt>
  <wgt id="30">2.83251e-06</wgt>
  <wgt id="31">2.81469e-06</wgt>
  <wgt id="32">2.82505e-06</wgt>
  <wgt id="33">2.82529e-06</wgt>
  <wgt id="34">2.79493e-06</wgt>
  <wgt id="35">2.88037e-06</wgt>
  <wgt id="36">2.8533e-06</wgt>
  <wgt id="37">2.80931e-06</wgt>
  <wgt id="38">2.82373e-06</wgt>
  <wgt id="39">2.82643e-06</wgt>
  <wgt id="40">2.83526e-06</wgt>
  <wgt id="41">2.81583e-06</wgt>
  <wgt id="42">2.84389e-06</wgt>
  <wgt id="43">2.78624e-06</wgt>
  <wgt id="44">2.83242e-06</wgt>
  <wgt id="45">2.82251e-06</wgt>
  <wgt id="46">2.81533e-06</wgt>
  <wgt id="47">2.83205e-06</wgt>
  <wgt id="48">2.84058e-06</wgt>
  <wgt id="49">2.8221e-06</wgt>
  <wgt id="50">2.8275e-06</wgt>
  <wgt id="51">2.8159e-06</wgt>
  <wgt id="52">2.84171e-06</wgt>
  <wgt id="53">2.82113e-06</wgt>
</rwgt>
</event>
<event>
 10      0 +2.8251000e-06 1.69656000e+02 7.54677100e-03 1.10019700e-01
        4 -1    0    0  501    0 +0.00000000000e+00 +0.00000000000e+00 +3.30491085950e+01  3.30491085950e+01  0.00000000000e+00 0.0000e+00 -1.0000e+00
        2 -1    0    0  502    0 +0.00000000000e+00 +0.00000000000e+00 -1.47153720190e+03  1.47153720190e+03  0.00000000000e+00 0.0000e+00 -1.0000e+00
       24  2    1    2    0    0 +1.51333788032e+00 +3.34108962305e+01 -6.66327157895e+01  1.09444705590e+02  8.01226970951e+01 0.0000e+00 0.0000e+00
       14  1    3    3    0    0 -5.68771937339e-01 +7.35674644377e+00 +1.87507356794e+01  2.01503178207e+01  0.00000000000e+00 0.0000e+00 -1.0000e+00
      -13  1    3    3    0    0 +2.08210981766e+00 +2.60541497868e+01 -8.53834514690e+01  8.92943877696e+01  0.00000000000e+00 0.0000e+00 1.0000e+00
       24  2    1    2    0    0 +2.57341525869e+01 -6.89003604445e+00 -8.17069850337e+02  8.21358979689e+02  7.94840485928e+01 0.0000e+00 0.0000e+00
        4  1    6    6  503    0 +4.80506461530e+01 -5.02929710494e-01 -7.17993290139e+02  7.19599529057e+02  0.00000000000e+00 0.0000e+00 -1.0000e+00
       -3  1    6    6    0  503 -2.23164935661e+01 -6.38710633396e+00 -9.90765601977e+01  1.01759450632e+02  0.00000000000e+00 0.0000e+00 1.0000e+00
        1  1    1    2  501    0 -3.86694351833e+00 -7.85734812846e+01 -4.21772125208e+02  4.29046000816e+02  0.00000000000e+00 0.0000e+00 -1.0000e+00
        3  1    1    2  502    0 -2.33805469489e+01 +5.20526210985e+01 -1.33013401970e+02  1.44736624400e+02  0.00000000000e+00 0.0000e+00 -1.0000e+00
#  0.1300000e+05  0.1300000e+05  0.1300000e+05  0.1300000e+05
<mgrwt>
<rscale>  2 0.16648418e+03</rscale>
<asrwt>0</asrwt>
<pdfrwt beam="1">  1        2 0.22639034e+00 0.16965605e+03</pdfrwt>
<pdfrwt beam="2">  1        4 0.50844782e-02 0.15731998e+03</pdfrwt>
<totfact> 0.25534914e+01</totfact>
</mgrwt>
<clustering>
<clus scale="   56.805">  3  6 -1 -1</clus>
<clus scale="   77.707">  4  5 -1 -1</clus>
<clus scale="  157.320">  1  3  2 -1</clus>
<clus scale="  169.656">  2  3  1 -1</clus>
</clustering>
<rwgt>
  <wgt id="1">3.90737e-06</wgt>
  <wgt id="2">2.53053e-06</wgt>
  <wgt id="3">1.77614e-06</wgt>
  <wgt id="4">4.36221e-06</wgt>
  <wgt id="5">2.8251e-06</wgt>
  <wgt id="6">1.98289e-06</wgt>
  <wgt id="7">4.57415e-06</wgt>
  <wgt id="8">2.96236e-06</wgt>
  <wgt id="9">2.07923e-06</wgt>
  <wgt id="10">2.8251e-06</wgt>
  <wgt id="11">2.8251e-06</wgt>
  <wgt id="12">2.8251e-06</wgt>
  <wgt id="13">2.8251e-06</wgt>
  <wgt id="14">2.8277e-06</wgt>
  <wgt id="15">2.82303e-06</wgt>
  <wgt id="16">2.81787e-06</wgt>
  <wgt id="17">2.83319e-06</wgt>
  <wgt id="18">2.82062e-06</wgt>
  <wgt id="19">2.8318e-06</wgt>
  <wgt id="20">2.82399e-06</wgt>
  <wgt id="21">2.82594e-06</wgt>
  <wgt id="22">2.82559e-06</wgt>
  <wgt id="23">2.82443e-06</wgt>
  <wgt id="24">2.82562e-06</wgt>
  <wgt id="25">2.82458e-06</wgt>
  <wgt id="26">2.83238e-06</wgt>
  <wgt id="27">2.81522e-06</wgt>
  <wgt id="28">2.8425e-06</wgt>
  <wgt id="29">2.8188e-06</wgt>
  <wgt id="30">2.8364e-06</wgt>
  <wgt id="31">2.80311e-06</wgt>
  <wgt id="32">2.822e-06</wgt>
  <wgt id="33">2.82808e-06</wgt>
  <wgt id="34">2.78994e-06</wgt>
  <wgt id="35">2.88702e-06</wgt>
  <wgt id="36">2.84586e-06</wgt>
  <wgt id="37">2.81244e-06</wgt>
  <wgt id="38">2.82835e-06</wgt>
  <wgt id="39">2.82369e-06</wgt>
  <wgt id="40">2.83181e-06</wgt>
  <wgt id="41">2.82227e-06</wgt>
  <wgt id="42">2.83296e-06</wgt>
  <wgt id="43">2.81604e-06</wgt>
  <wgt id="44">2.82938e-06</wgt>
  <wgt id="45">2.82362e-06</wgt>
  <wgt id="46">2.82495e-06</wgt>
  <wgt id="47">2.82528e-06</wgt>
  <wgt id="48">2.82185e-06</wgt>
  <wgt id="49">2.82984e-06</wgt>
  <wgt id="50">2.81616e-06</wgt>
  <wgt id="51">2.81858e-06</wgt>
  <wgt id="52">2.82976e-06</wgt>
  <wgt id="53">2.82418e-06</wgt>
</rwgt>
</event>
<event>
 11      0 +2.8251000e-06 3.53213900e+02 7.54677100e-03 1.00378900e-01
        2 -1    0    0  503    0 +0.00000000000e+00 +0.00000000000e+00 +2.08984192330e+03  2.08984192330e+03  0.00000000000e+00 0.0000e+00 -1.0000e+00
        2 -1    0    0  501    0 +0.00000000000e+00 +0.00000000000e+00 -9.58559456220e+02  9.58559456220e+02  0.00000000000e+00 0.0000e+00 -1.0000e+00
       24  2    1    2    0    0 +2.00688748255e+02 +1.56448224672e+01 +2.60232780429e+02  3.38700136034e+02  8.04732750249e+01 0.0000e+00 0.0000e+00
       14  1    3    3    0    0 +1.87405961594e+02 -3.74634084525e+00 +2.51408286683e+02  3.13593935088e+02  0.00000000000e+00 0.0000e+00 -1.0000e+00
      -13  1    3    3    0    0 +1.32827866611e+01 +1.93911633124e+01 +8.82449374639e+00  2.51062009466e+01  0.00000000000e+00 0.0000e+00 1.0000e+00
       24  2    1    2    0    0 -1.34932555924e+02 -1.97034792758e+01 -1.27731445279e+02  2.11865177386e+02  9.98824786038e+01 0.0000e+00 0.0000e+00
        2  1    6    6  504    0 -5.48447682678e+01 +4.08365942222e+01 -4.60426178787e+01  8.24348148244e+01  0.00000000000e+00 0.0000e+00 -1.0000e+00
       -1  1    6    6    0  504 -8.00877876565e+01 -6.05400734981e+01 -8.16888273999e+01  1.29430362562e+02  0.00000000000e+00 0.0000e+00 1.0000e+00
       21  1    1    2  503  502 -9.33826953826e+01 +1.10676464356e+02 +2.70759420852e+02  3.07050926622e+02  0.00000000000e+00 0.0000e+00 1.0000e+00
        1  1    1    2  501    0 +3.71070298132e+02 -5.46988033068e+02 +1.25787522985e+03  1.42096416856e+03  0.00000000000e+00 0.0000e+00 -1.0000e+00
        1  1    1    2  502    0 -3.43443795081e+02 +4.40370225520e+02 -5.29853518771e+02  7.69820970914e+02  0.00000000000e+00 0.0000e+00 -1.0000e+00
#  0.1300000e+05  0.1300000e+05  0.1448089e+03  0.1300000e+05  0.1300000e+05
<mgrwt>
<rscale>  2 0.33073338e+03</rscale>
<asrwt>  1 0.14480887e+03</asrwt>
<pdfrwt beam="1">  2        2        2 0.32151414e+00 0.27098085e+00 0.14480887e+03 0.35321387e+03</pdfrwt>
<pdfrwt beam="2">  1        2 0.14747069e+00 0.15300614e+03</pdfrwt>
<totfact> 0.34761447e-02</totfact>
</mgrwt>
<clustering>
<clus scale="  144.809">  1  5  2 -1</clus>
<clus scale="  153.006">  2  4  1 -1</clus>
<clus scale="  199.043">  1  3  2 -1</clus>
<clus scale="  626.798">  1  6  2 -1</clus>
<clus scale="  626.798">  1  3  2 -1</clus>
</clustering>
<rwgt>
  <wgt id="1">5.10632e-06</wgt>
  <wgt id="2">3.4559e-06</wgt>
  <wgt id="3">2.49851e-06</wgt>
  <wgt id="4">4.17428e-06</wgt>
  <wgt id="5">2.8251e-06</wgt>
  <wgt id="6">2.04246e-06</wgt>
  <wgt id="7">3.52543e-06</wgt>
  <wgt id="8">2.38597e-06</wgt>
  <wgt id="9">1.72498e-06</wgt>
  <wgt id="10">3.52871e-06</wgt>
  <wgt id="11">2.8251e-06</wgt>
  <wgt id="12">2.35895e-06</wgt>
  <wgt id="13">2.8251e-06</wgt>
  <wgt id="14">2.82822e-06</wgt>
  <wgt id="15">2.82248e-06</wgt>
  <wgt id="16">2.80608e-06</wgt>
  <wgt id="17">2.84644e-06</wgt>
  <wgt id="18">2.81015e-06</wgt>
  <wgt id="19">2.84718e-06</wgt>
  <wgt id="20">2.81731e-06</wgt>
  <wgt id="21">2.83039e-06</wgt>
  <wgt id="22">2.83408e-06</wgt>
  <wgt id="23">2.81235e-06</wgt>
  <wgt id="24">2.87377e-06</wgt>
  <wgt id="25">2.79531e-06</wgt>
  <wgt id="26">2.82559e-06</wgt>
  <wgt id="27">2.82446e-06</wgt>
  <wgt id="28">2.87235e-06</wgt>
  <wgt id="29">2.80792e-06</wgt>
  <wgt id="30">2.83054e-06</wgt>
  <wgt id="31">2.81828e-06</wgt>
  <wgt id="32">2.82394e-06</wgt>
  <wgt id="33">2.82625e-06</wgt>
  <wgt id="34">2.7815e-06</wgt>
  <wgt id="35">2.90601e-06</wgt>
  <wgt id="36">2.84591e-06</wgt>
  <wgt id="37">2.81421e-06</wgt>
  <wgt id="38">2.81468e-06</wgt>
  <wgt id="39">2.83093e-06</wgt>
  <wgt id="40">2.83264e-06</wgt>
  <wgt id="41">2.81772e-06</wgt>
  <wgt id="42">2.84953e-06</wgt>
  <wgt id="43">2.7865e-06</wgt>
  <wgt id="44">2.83247e-06</wgt>
  <wgt id="45">2.82245e-06</wgt>
  <wgt id="46">2.82343e-06</wgt>
  <wgt id="47">2.8261e-06</wgt>
  <wgt id="48">2.82897e-06</wgt>
  <wgt id="49">2.82885e-06</wgt>
  <wgt id="50">2.81756e-06</wgt>
  <wgt id="51">2.83738e-06</wgt>
  <wgt id="52">2.84221e-06</wgt>
  <wgt id="53">2.82099e-06</wgt>
</rwgt>
</event>
